# t (s)	mx ()	my ()	mz ()	B_extx (T)	B_exty (T)	B_extz (T)	E_total (J)
0	0	0	-1	0	0	0.41	1.3250005e-18
1.0029542403813796e-11	-0.011854917	-0.0018355638	-0.9750849	0	0	0.41	4.93148e-18
2.005549866887893e-11	-0.018324489	-0.027250206	-0.96997505	0	0	0.41	5.242016e-18
3.006439483651214e-11	-0.009709674	-0.02722025	-0.9647864	0	0	0.41	4.6938624e-18
4.0009189375380627e-11	-0.011348002	-0.0020034395	-0.9646462	0	0	0.41	4.9232835e-18
5.001779822073452e-11	0.0028676859	-0.0073248413	-0.9625076	0	0	0.41	5.1836456e-18
6.001849913354373e-11	0.016356045	0.004577618	-0.9628691	0	0	0.41	5.8368114e-18
7.004764121953223e-11	0.028200084	-0.00062693516	-0.96491534	0	0	0.41	4.5304045e-18
8.005420342312942e-11	0.02805764	0.012750098	-0.9616131	0	0	0.41	4.908917e-18
9.000037082118594e-11	0.03206767	0.0072559463	-0.96094406	0	0	0.41	4.247987e-18
1.0002664626909927e-10	0.011663972	0.029699162	-0.9581937	0	0	0.41	4.5534746e-18
1.1002341232791687e-10	0.005033014	0.035021182	-0.9559723	0	0	0.41	5.31056e-18
1.200552270262096e-10	0.018493518	0.035403486	-0.9525408	0	0	0.41	4.344445e-18
1.3003680036966206e-10	0.011190899	0.05118634	-0.94878924	0	0	0.41	5.1252884e-18
1.4002238267726306e-10	0.019017164	0.069221616	-0.9481039	0	0	0.41	5.5964844e-18
1.5003383973090359e-10	0.026077796	0.07414343	-0.9453104	0	0	0.41	4.5436423e-18
1.6000413209240403e-10	0.02417081	0.08683927	-0.94633687	0	0	0.41	5.3556574e-18
1.7000363634377291e-10	0.019665394	0.077651866	-0.95100725	0	0	0.41	4.739986e-18
1.800536868815721e-10	0.028321745	0.06853137	-0.95353216	0	0	0.41	4.790984e-18
1.9001354196629892e-10	0.029799247	0.07160042	-0.9470923	0	0	0.41	5.6009533e-18
2.0004096064167825e-10	0.018534344	0.0787886	-0.95301044	0	0	0.41	4.6239165e-18
2.10006597512776e-10	0.030525822	0.062093765	-0.9531813	0	0	0.41	5.319882e-18
2.2003179968287782e-10	0.024085602	0.067361824	-0.9502685	0	0	0.41	4.1691532e-18
2.3005414574192678e-10	0.025870515	0.083380796	-0.9457692	0	0	0.41	4.6633937e-18
2.400428646851206e-10	0.025987633	0.086064346	-0.94031864	0	0	0.41	5.510824e-18
2.500638068328165e-10	0.03393373	0.08350317	-0.9401207	0	0	0.41	4.7710247e-18
2.6000160875810077e-10	0.029536434	0.07285233	-0.9410895	0	0	0.41	5.1210595e-18
2.7000980500720473e-10	0.037910584	0.08633303	-0.9370825	0	0	0.41	4.7124475e-18
2.8002740165028985e-10	0.02530547	0.0821321	-0.9339807	0	0	0.41	4.3763293e-18
2.9000670730098125e-10	0.017918877	0.08309408	-0.9383793	0	0	0.41	5.7238607e-18
3.000309832148459e-10	0.0410607	0.077245474	-0.93540734	0	0	0.41	4.602679e-18
3.100419252751388e-10	0.039189633	0.06185346	-0.93614507	0	0	0.41	4.471097e-18
3.2004612164033015e-10	0.05640017	0.048253354	-0.93605334	0	0	0.41	4.562686e-18
3.300320666245191e-10	0.07311281	0.023293741	-0.93819845	0	0	0.41	5.53982e-18
3.400323798833308e-10	0.07499909	0.03059786	-0.94058305	0	0	0.41	5.535403e-18
3.500003768996138e-10	0.061253417	0.024467694	-0.9419951	0	0	0.41	4.261724e-18
3.600249625928622e-10	0.06507196	0.010336998	-0.9506597	0	0	0.41	4.117696e-18
3.700509702035688e-10	0.057793114	0.022698266	-0.94830966	0	0	0.41	4.3871612e-18
3.800314885370804e-10	0.046875194	0.031153914	-0.95085514	0	0	0.41	4.6604175e-18
3.900438145479966e-10	0.057171423	0.016917983	-0.9477764	0	0	0.41	4.03819e-18
4.00061286352691e-10	0.052288275	0.033171855	-0.94564366	0	0	0.41	4.533498e-18
4.1004797483950124e-10	0.052542776	0.027089639	-0.9440809	0	0	0.41	4.916211e-18
4.200487273261201e-10	0.049151637	0.034711484	-0.9349946	0	0	0.41	4.8110102e-18
4.3005228033907054e-10	0.060396515	0.026224658	-0.93216234	0	0	0.41	4.2355374e-18
4.4004258958377225e-10	0.048181195	0.025039738	-0.93361753	0	0	0.41	4.252832e-18
4.500026395956276e-10	0.039368432	0.01726656	-0.9364851	0	0	0.41	4.4106217e-18
4.6000453425477696e-10	0.038970277	0.019470828	-0.9374612	0	0	0.41	4.686878e-18
4.700223522234383e-10	0.03410374	0.022545673	-0.93899864	0	0	0.41	4.735616e-18
4.800663572638556e-10	0.032332793	0.03689949	-0.94531655	0	0	0.41	5.156999e-18
4.900295035420102e-10	0.017645411	0.040642507	-0.9430849	0	0	0.41	4.3603986e-18
5.000208360724866e-10	0.03737731	0.04273283	-0.942961	0	0	0.41	5.01781e-18
5.100001045229892e-10	0.030473648	0.039021805	-0.95200545	0	0	0.41	5.596848e-18
5.200046608082903e-10	0.034770295	0.044945177	-0.94761807	0	0	0.41	4.393397e-18
5.300408098743942e-10	0.04313266	0.044588696	-0.9461116	0	0	0.41	5.5489956e-18
5.400306277916792e-10	0.03579331	0.044744145	-0.945778	0	0	0.41	5.227627e-18
5.5002416962775e-10	0.03410966	0.052377652	-0.9412568	0	0	0.41	4.8476506e-18
5.600529174957705e-10	0.025403544	0.03467667	-0.9441676	0	0	0.41	5.334491e-18
5.700285626473382e-10	0.028539568	0.044788808	-0.938609	0	0	0.41	3.9064146e-18
5.800185010548787e-10	0.020739907	0.04828935	-0.93865484	0	0	0.41	4.561611e-18
5.900137177271342e-10	0.009339103	0.03401664	-0.93707275	0	0	0.41	4.5803104e-18
6.000459923826872e-10	-0.00088779564	0.029710883	-0.9395565	0	0	0.41	4.347101e-18
6.100065398911933e-10	-0.0029172427	0.02779077	-0.9411206	0	0	0.41	4.8106405e-18
6.200341063891507e-10	0.005012848	0.032552864	-0.93624324	0	0	0.41	4.1854665e-18
6.300172987452301e-10	0.017273784	0.030018494	-0.93619704	0	0	0.41	5.3019614e-18
6.400074891708973e-10	0.004033528	0.030821506	-0.93976927	0	0	0.41	5.067268e-18
6.500660700953446e-10	-0.010994808	0.020725762	-0.9403842	0	0	0.41	5.2141988e-18
6.600578671654354e-10	-0.011360627	0.021152424	-0.94440645	0	0	0.41	4.56426e-18
6.700551110466107e-10	-0.014653809	0.052668802	-0.94582456	0	0	0.41	4.500994e-18
6.800526596372937e-10	-0.006352812	0.057075262	-0.94474876	0	0	0.41	5.033701e-18
6.90007009233311e-10	-0.021299306	0.06463189	-0.9417673	0	0	0.41	4.4235547e-18
7.000318127341149e-10	-0.016906507	0.07850903	-0.9404338	0	0	0.41	4.589268e-18
7.100266314145887e-10	-0.022316849	0.06643752	-0.9396468	0	0	0.41	5.0435373e-18
7.200547815831473e-10	-0.0204217	0.06813902	-0.94363165	0	0	0.41	5.3712063e-18
7.300258708732501e-10	-0.020449053	0.07888716	-0.9411457	0	0	0.41	4.5490343e-18
7.400262959500336e-10	-0.024630217	0.09326931	-0.9414399	0	0	0.41	5.421364e-18
7.500493080800652e-10	-0.019309267	0.094783016	-0.9364547	0	0	0.41	5.4938685e-18
7.600045919582965e-10	-0.020453284	0.093683556	-0.93940884	0	0	0.41	5.370834e-18
7.700467444624442e-10	-0.016236953	0.08730769	-0.9435836	0	0	0.41	4.2670513e-18
7.800278608953766e-10	-0.01645072	0.092364	-0.94529915	0	0	0.41	5.3721832e-18
7.900059292392733e-10	-0.027003746	0.120796576	-0.9423132	0	0	0.41	4.1359713e-18
8.000594875295804e-10	-0.020754196	0.11597251	-0.9450601	0	0	0.41	3.659438e-18
8.100037600774945e-10	-0.03345039	0.114847474	-0.9431307	0	0	0.41	4.40113e-18
8.200598473774982e-10	-0.025502581	0.11417507	-0.9464543	0	0	0.41	4.5843222e-18
8.300242040294137e-10	-0.027682774	0.11695646	-0.9469156	0	0	0.41	4.378061e-18
8.400204111099627e-10	-0.03532211	0.11818795	-0.9472843	0	0	0.41	5.184734e-18
8.500601577745468e-10	-0.036569092	0.10573578	-0.9510997	0	0	0.41	5.808409e-18
8.600089933683741e-10	-0.027005833	0.11682135	-0.95105237	0	0	0.41	4.4125544e-18
8.700218448817905e-10	-0.017768502	0.13230811	-0.9494286	0	0	0.41	4.489526e-18
8.800192817063813e-10	-0.0021526157	0.13786842	-0.9490364	0	0	0.41	4.8875257e-18
8.900592573474649e-10	0.0010353131	0.11286214	-0.9475412	0	0	0.41	4.9415236e-18
9.000273519844645e-10	-0.0074601644	0.10971752	-0.94824564	0	0	0.41	4.2660384e-18
9.100571167328711e-10	-0.018590497	0.120554544	-0.94574636	0	0	0.41	3.9039244e-18
9.200048403269645e-10	-0.02353529	0.122244395	-0.9397898	0	0	0.41	4.5454944e-18
9.300622458216665e-10	-0.019668316	0.11932373	-0.94023705	0	0	0.41	4.714869e-18
9.40020198801146e-10	-0.016007025	0.10854664	-0.94199073	0	0	0.41	4.509879e-18
9.500073062221172e-10	-0.00020738423	0.12734035	-0.9398501	0	0	0.41	5.3096215e-18
9.600275518207729e-10	-0.004724174	0.11847067	-0.9383941	0	0	0.41	5.0125846e-18
9.700435278538475e-10	-0.012818644	0.13554169	-0.93976957	0	0	0.41	5.6566506e-18
9.800192626669173e-10	-0.0063686613	0.13234673	-0.94196594	0	0	0.41	5.666601e-18
9.90018070611812e-10	-0.009960963	0.13470376	-0.9438266	0	0	0.41	4.197151e-18
1.0000055413645402e-09	0.003525598	0.13384116	-0.94528365	0	0	0.41	4.1770516e-18
1.0100473080945688e-09	0.013254412	0.1337414	-0.9451188	0	0	0.41	5.5131853e-18
1.0200404846494517e-09	0.028769886	0.1319028	-0.9440578	0	0	0.41	3.7958504e-18
1.0300614889255617e-09	0.027023846	0.12860474	-0.94302285	0	0	0.41	4.60542e-18
1.040056849691634e-09	0.006168844	0.12925191	-0.9445927	0	0	0.41	3.761812e-18
1.0500029313396936e-09	-0.0048705772	0.11277876	-0.94463915	0	0	0.41	4.924891e-18
1.0600313207246861e-09	0.009866475	0.11685198	-0.9411471	0	0	0.41	5.6880967e-18
1.0700007884276126e-09	0.0069136433	0.11233235	-0.9405624	0	0	0.41	4.7963907e-18
1.0800100676964895e-09	0.019632796	0.10258052	-0.94215655	0	0	0.41	4.5095244e-18
1.0900335235855523e-09	0.018979574	0.10208237	-0.9449633	0	0	0.41	4.7147107e-18
1.1000240000874737e-09	0.021895424	0.0937781	-0.948081	0	0	0.41	4.4093905e-18
1.1100530760630378e-09	0.011733976	0.0879067	-0.9478677	0	0	0.41	4.675845e-18
1.1200300345935571e-09	0.011660045	0.08641746	-0.9475968	0	0	0.41	4.9423545e-18
1.1300214890780849e-09	0.02883273	0.091473095	-0.94668984	0	0	0.41	5.114457e-18
1.1400339464664783e-09	0.014086023	0.10396403	-0.9483312	0	0	0.41	5.5074554e-18
1.1500573747914914e-09	0.026752092	0.10053569	-0.94868344	0	0	0.41	4.0708056e-18
1.1600345226947518e-09	0.025351	0.10310471	-0.9444822	0	0	0.41	3.944326e-18
1.1700426527867986e-09	0.027945796	0.10480722	-0.94040114	0	0	0.41	4.472789e-18
1.180057478659373e-09	0.048234466	0.09925818	-0.94432044	0	0	0.41	5.1059597e-18
1.1900479539540503e-09	0.051610444	0.10410936	-0.9426386	0	0	0.41	4.0924856e-18
1.2000243287081836e-09	0.06531871	0.109727316	-0.9408628	0	0	0.41	3.7913397e-18
1.2100083359388574e-09	0.06485245	0.09931641	-0.93788815	0	0	0.41	4.8634614e-18
1.2200636696555023e-09	0.059373192	0.08753052	-0.93435436	0	0	0.41	4.170074e-18
1.2300328794742293e-09	0.041389395	0.08297143	-0.9340342	0	0	0.41	6.079543e-18
1.240037393279521e-09	0.036260817	0.07584311	-0.9348344	0	0	0.41	4.128732e-18
1.250050416008512e-09	0.025683919	0.07352036	-0.93490654	0	0	0.41	4.454324e-18
1.260027018820883e-09	0.03520064	0.092373796	-0.9350496	0	0	0.41	4.7108813e-18
1.2700353734584367e-09	0.0384442	0.11148316	-0.9319593	0	0	0.41	4.695511e-18
1.2800042344807434e-09	0.034260232	0.12155145	-0.93601435	0	0	0.41	5.0370944e-18
1.2900398711312184e-09	0.030527195	0.12801553	-0.9404154	0	0	0.41	5.0615335e-18
1.3000490948851175e-09	0.033421744	0.12208918	-0.9439453	0	0	0.41	4.3258097e-18
1.3100317122069837e-09	0.046346463	0.10005673	-0.94668984	0	0	0.41	5.4323718e-18
1.3200365743257031e-09	0.0386445	0.10585184	-0.94711125	0	0	0.41	4.305044e-18
1.3300316413662065e-09	0.04110378	0.1122529	-0.94167024	0	0	0.41	3.623799e-18
1.3400603798565001e-09	0.029363742	0.11726931	-0.93963134	0	0	0.41	5.783341e-18
1.350002639270941e-09	0.042127226	0.11995823	-0.9409526	0	0	0.41	4.3767173e-18
1.3600561548337213e-09	0.025143275	0.10790707	-0.94088393	0	0	0.41	4.5977465e-18
1.370043384726761e-09	0.024495952	0.102380775	-0.93982404	0	0	0.41	3.996345e-18
1.380052805374961e-09	0.01651869	0.10062603	-0.9351396	0	0	0.41	4.4889913e-18
1.3900434565697951e-09	0.010357241	0.11614858	-0.93728256	0	0	0.41	4.195946e-18
1.400040739147659e-09	0.022734834	0.11680192	-0.9349498	0	0	0.41	5.484498e-18
1.4100485862038891e-09	0.021147342	0.11404503	-0.93703955	0	0	0.41	4.441936e-18
1.4200485076259448e-09	0.025905255	0.10538654	-0.93148744	0	0	0.41	5.0944627e-18
1.4300329279497788e-09	0.033903677	0.09907939	-0.9331277	0	0	0.41	3.8703347e-18
1.4400456800230155e-09	0.030487131	0.09561299	-0.93444043	0	0	0.41	4.740734e-18
1.4500009494316393e-09	0.012654681	0.10855028	-0.9353451	0	0	0.41	4.6521237e-18
1.4600117588718284e-09	0.012369321	0.106947444	-0.9395993	0	0	0.41	4.4246834e-18
1.4700280843027827e-09	0.00027728901	0.11130071	-0.9392464	0	0	0.41	4.3246855e-18
1.4800296245882464e-09	0.018523807	0.115779035	-0.9391053	0	0	0.41	5.2874166e-18
1.4900116846711286e-09	0.02771159	0.13142273	-0.93718874	0	0	0.41	3.6637103e-18
1.5000500908331756e-09	0.033492893	0.13287881	-0.93867445	0	0	0.41	4.282163e-18
1.5100224869822673e-09	0.035377406	0.12731223	-0.9421853	0	0	0.41	3.8388278e-18
1.52004727332338e-09	0.03301798	0.12166783	-0.9412315	0	0	0.41	5.6046437e-18
1.530029337953017e-09	0.02903453	0.1166112	-0.9382502	0	0	0.41	4.231984e-18
1.540066350640685e-09	0.018948367	0.12434617	-0.92969996	0	0	0.41	4.305921e-18
1.5500287021366601e-09	0.01441225	0.12840189	-0.9201447	0	0	0.41	4.9810546e-18
1.5600559357451306e-09	0.002494596	0.11636411	-0.9228731	0	0	0.41	5.415723e-18
1.5700258934609575e-09	0.031015856	0.12262806	-0.927823	0	0	0.41	4.5611202e-18
1.5800534335122994e-09	0.031445995	0.12327847	-0.92911583	0	0	0.41	4.731117e-18
1.5900254027941499e-09	0.027458481	0.13077834	-0.93104756	0	0	0.41	4.475379e-18
1.6000404505651473e-09	0.04438614	0.11875722	-0.93919915	0	0	0.41	4.743856e-18
1.6100614979037345e-09	0.05821423	0.112145096	-0.93564075	0	0	0.41	4.1141925e-18
1.6200413176640056e-09	0.047780093	0.09968499	-0.9427266	0	0	0.41	4.549293e-18
1.6300090355646949e-09	0.042586144	0.09237092	-0.93875694	0	0	0.41	4.4167296e-18
1.6400399937141648e-09	0.0015832568	0.09410364	-0.9407811	0	0	0.41	5.9202698e-18
1.650022191697259e-09	0.0012990101	0.07489146	-0.94459426	0	0	0.41	5.707092e-18
1.6600351164529775e-09	0.0056932	0.06238383	-0.9500304	0	0	0.41	4.898083e-18
1.6700492412849018e-09	-0.013136302	0.06826898	-0.9493725	0	0	0.41	5.061591e-18
1.6800353688922387e-09	-0.013048672	0.07509194	-0.94924784	0	0	0.41	4.6791696e-18
1.6900555090253388e-09	-0.010582916	0.06554946	-0.9490699	0	0	0.41	5.7773826e-18
1.7000235026876572e-09	-0.009951622	0.039289344	-0.94732755	0	0	0.41	5.821103e-18
1.7100025035920232e-09	-0.0031082642	0.04935637	-0.94275516	0	0	0.41	5.0097693e-18
1.7200318585153288e-09	0.009663375	0.03416738	-0.94530886	0	0	0.41	3.95974e-18
1.7300406490628812e-09	0.0037101784	0.03644504	-0.94425195	0	0	0.41	4.473773e-18
1.7400598384989894e-09	-0.019252723	0.04129859	-0.944929	0	0	0.41	4.5045597e-18
1.7500584473945694e-09	-0.020806687	0.034671247	-0.9433778	0	0	0.41	4.4063547e-18
1.7600005487602782e-09	-0.026612867	0.035783276	-0.93894815	0	0	0.41	5.3899895e-18
1.770023966740999e-09	-0.040228747	0.047395438	-0.9385525	0	0	0.41	4.3174452e-18
1.7800201389157522e-09	-0.03102887	0.040353302	-0.938466	0	0	0.41	4.8675315e-18
1.79002627274078e-09	-0.020840293	0.03363912	-0.94268245	0	0	0.41	4.0942884e-18
1.8000352286569587e-09	-0.011259074	0.034332294	-0.94852424	0	0	0.41	4.6082435e-18
1.8100467312447082e-09	-0.010878383	0.03901489	-0.94066036	0	0	0.41	5.5427516e-18
1.8200372307683858e-09	-0.00487828	0.049354464	-0.9432203	0	0	0.41	4.5639814e-18
1.830014689745914e-09	-0.026179248	0.048073	-0.9411633	0	0	0.41	3.7704063e-18
1.84006124575509e-09	-0.024043327	0.06361236	-0.942288	0	0	0.41	4.659416e-18
1.8500278019100622e-09	-0.037035473	0.0668973	-0.9410492	0	0	0.41	5.15703e-18
1.8600197098295964e-09	-0.047047287	0.06446456	-0.9407276	0	0	0.41	4.5227184e-18
1.870004739476873e-09	-0.056431953	0.070622616	-0.9346345	0	0	0.41	4.7808488e-18
1.880027541646174e-09	-0.05383455	0.040570673	-0.9326208	0	0	0.41	4.6426624e-18
1.8900112548453897e-09	-0.07248978	0.03972603	-0.93406266	0	0	0.41	5.2730667e-18
1.900051561239519e-09	-0.074350655	0.03779415	-0.9330159	0	0	0.41	4.414353e-18
1.9100526607130627e-09	-0.08340778	0.02788735	-0.9325639	0	0	0.41	4.278254e-18
1.920008082563216e-09	-0.09257951	0.03782292	-0.93309873	0	0	0.41	4.792674e-18
1.9300225034719056e-09	-0.09298692	0.0392617	-0.93420774	0	0	0.41	5.281981e-18
1.9400354347674347e-09	-0.08266787	0.034144804	-0.9360508	0	0	0.41	5.5111206e-18
1.9500011318961126e-09	-0.07698885	0.035453632	-0.93924963	0	0	0.41	4.8789602e-18
1.960056963736736e-09	-0.06411064	0.050639447	-0.9367793	0	0	0.41	4.4660106e-18
1.9700052339577097e-09	-0.058064513	0.05888768	-0.93791986	0	0	0.41	4.9826676e-18
1.9800395252334258e-09	-0.06035732	0.073259585	-0.9385215	0	0	0.41	5.019662e-18
1.9900330832853596e-09	-0.049028367	0.07235121	-0.94101095	0	0	0.41	4.644648e-18
2.0000489622432463e-09	-0.051490698	0.06309248	-0.94081694	0	0	0.41	3.980416e-18
2.0100344128684625e-09	-0.04296734	0.05067472	-0.94422346	0	0	0.41	4.2130505e-18
2.0200086292886394e-09	-0.05899197	0.06163883	-0.94305027	0	0	0.41	4.847575e-18
2.030049234379961e-09	-0.054919455	0.051975664	-0.9466145	0	0	0.41	4.849423e-18
2.0400053963899485e-09	-0.07233047	0.033534627	-0.9485451	0	0	0.41	4.311551e-18
2.050026766075011e-09	-0.06879456	0.03565824	-0.94876957	0	0	0.41	4.418933e-18
2.0600607966476147e-09	-0.06776814	0.04003863	-0.94777495	0	0	0.41	3.9405573e-18
2.0700291584597042e-09	-0.0590609	0.048869815	-0.9464218	0	0	0.41	4.0493126e-18
2.080018412669476e-09	-0.051768936	0.05652104	-0.94637805	0	0	0.41	5.396644e-18
2.0900192004294713e-09	-0.06280441	0.048322134	-0.944054	0	0	0.41	3.1569712e-18
2.100047243571973e-09	-0.07633966	0.044209063	-0.94830775	0	0	0.41	3.6931786e-18
2.1100500561758105e-09	-0.09585027	0.049406633	-0.9422873	0	0	0.41	4.6221728e-18
2.1200229159447285e-09	-0.09419167	0.06325982	-0.94244003	0	0	0.41	4.4625207e-18
2.130042231715749e-09	-0.089152575	0.060591947	-0.94114053	0	0	0.41	4.6332297e-18
2.1400224110643048e-09	-0.073425464	0.054524127	-0.93724084	0	0	0.41	4.8277913e-18
2.150033870097092e-09	-0.07545852	0.041124005	-0.94198805	0	0	0.41	5.097564e-18
2.1600604344623418e-09	-0.07270454	0.040654704	-0.94382674	0	0	0.41	4.549051e-18
2.170056773329244e-09	-0.0836724	0.041016955	-0.94337547	0	0	0.41	5.206875e-18
2.180017333537154e-09	-0.0730966	0.056056853	-0.9447788	0	0	0.41	3.612792e-18
2.1900267573983277e-09	-0.08337484	0.04823902	-0.9480086	0	0	0.41	4.570133e-18
2.20001555747601e-09	-0.09250296	0.045090437	-0.9467243	0	0	0.41	4.0451295e-18
2.2100430069336877e-09	-0.109361134	0.059953503	-0.94242114	0	0	0.41	5.374605e-18
2.220035958480894e-09	-0.10864242	0.058161706	-0.94279397	0	0	0.41	4.8516567e-18
2.2300511764567305e-09	-0.11704322	0.07320195	-0.94768345	0	0	0.41	4.736253e-18
2.24000977772996e-09	-0.105133496	0.07573585	-0.9528397	0	0	0.41	4.7039445e-18
2.250020744819842e-09	-0.10650765	0.08925492	-0.9454744	0	0	0.41	4.956538e-18
2.2600013529488307e-09	-0.10835645	0.074851446	-0.94511884	0	0	0.41	5.3855827e-18
2.270010263111567e-09	-0.11151065	0.07228014	-0.94873655	0	0	0.41	5.528271e-18
2.280038617148432e-09	-0.11467008	0.07791943	-0.9435008	0	0	0.41	4.5814023e-18
2.290055208372347e-09	-0.13242312	0.09038274	-0.93836015	0	0	0.41	4.418145e-18
2.300005623426627e-09	-0.119757585	0.10034844	-0.9349256	0	0	0.41	5.4216346e-18
2.3100033254681163e-09	-0.117950775	0.10831938	-0.9369665	0	0	0.41	3.7126294e-18
2.3200149710433177e-09	-0.12455925	0.09828296	-0.9348548	0	0	0.41	5.0954855e-18
2.330012749070819e-09	-0.1303423	0.08268681	-0.93651396	0	0	0.41	4.8823856e-18
2.340029873850697e-09	-0.138704	0.083642304	-0.9320737	0	0	0.41	5.02208e-18
2.35005326542979e-09	-0.13893229	0.060904767	-0.9340225	0	0	0.41	3.8531157e-18
2.3600462104153503e-09	-0.162811	0.048957627	-0.9324752	0	0	0.41	4.4010616e-18
2.370019979003637e-09	-0.17021954	0.040740564	-0.9350153	0	0	0.41	4.4354744e-18
2.3800507592499043e-09	-0.17148791	0.039839875	-0.9336787	0	0	0.41	5.054801e-18
2.3900460662407583e-09	-0.18139288	0.028510662	-0.9326497	0	0	0.41	4.9172368e-18
2.400055943705641e-09	-0.19316413	0.041049868	-0.92886305	0	0	0.41	5.2851994e-18
2.4100003290024733e-09	-0.18070531	0.020278893	-0.92977995	0	0	0.41	4.996266e-18
2.4200359229318808e-09	-0.18568248	0.009010907	-0.9296194	0	0	0.41	4.568093e-18
2.430014542879308e-09	-0.17567162	0.00010752561	-0.9217296	0	0	0.41	4.933619e-18
2.440064141003552e-09	-0.16958189	-0.03629683	-0.9232206	0	0	0.41	4.855655e-18
2.4500158400388463e-09	-0.16527241	-0.04882856	-0.9180698	0	0	0.41	4.8305495e-18
2.460000805324969e-09	-0.18867217	-0.057751223	-0.9243641	0	0	0.41	5.1351286e-18
2.470045428922331e-09	-0.19184612	-0.056328647	-0.9231964	0	0	0.41	5.265316e-18
2.4800244330756535e-09	-0.19057818	-0.049710233	-0.9217086	0	0	0.41	5.332639e-18
2.4900351463484355e-09	-0.20068213	-0.03762398	-0.92598766	0	0	0.41	5.402535e-18
2.5000207521928732e-09	-0.1985931	-0.020050626	-0.92176104	0	0	0.41	4.603675e-18
2.5100565274588573e-09	-0.17629012	-0.018597804	-0.92805386	0	0	0.41	4.83953e-18
2.520016752587526e-09	-0.161861	-0.018665122	-0.9337884	0	0	0.41	5.292091e-18
2.5300531552388005e-09	-0.18460964	-0.03322244	-0.93212545	0	0	0.41	3.846062e-18
2.540015012488967e-09	-0.19223884	-0.03337237	-0.93039757	0	0	0.41	5.0843728e-18
2.5500031859716255e-09	-0.20443293	-0.03698647	-0.9244685	0	0	0.41	4.797693e-18
2.560020318278566e-09	-0.20159999	-0.056022335	-0.92385846	0	0	0.41	4.77845e-18
2.5700252838786794e-09	-0.20844953	-0.07443591	-0.9159241	0	0	0.41	4.588606e-18
2.580032559676401e-09	-0.20943335	-0.07120511	-0.91684335	0	0	0.41	4.739547e-18
2.5900201175060437e-09	-0.201576	-0.06877628	-0.9176543	0	0	0.41	4.9781433e-18
2.6000223410202954e-09	-0.19805793	-0.07565846	-0.92104346	0	0	0.41	4.685333e-18
2.610054261662941e-09	-0.19153982	-0.06906023	-0.91757864	0	0	0.41	4.7254496e-18
2.6200107363325487e-09	-0.19210543	-0.078105554	-0.9164583	0	0	0.41	4.7357285e-18
2.630001285546949e-09	-0.17629522	-0.07802411	-0.91701525	0	0	0.41	5.0473676e-18
2.6400089613822968e-09	-0.14726277	-0.09094232	-0.91897	0	0	0.41	4.6519293e-18
2.6500330712304663e-09	-0.12413029	-0.107824974	-0.9207518	0	0	0.41	5.3168907e-18
2.6600507177837722e-09	-0.14374329	-0.112803265	-0.92022943	0	0	0.41	4.968631e-18
2.6700514491719198e-09	-0.15906143	-0.09701153	-0.9152279	0	0	0.41	3.503675e-18
2.6800412419994166e-09	-0.15579733	-0.08358379	-0.9223441	0	0	0.41	4.9613768e-18
2.690028229520037e-09	-0.17554446	-0.056811515	-0.9233208	0	0	0.41	4.804804e-18
2.7000645585944133e-09	-0.18117632	-0.035599604	-0.9255123	0	0	0.41	5.7568172e-18
2.7100150983229354e-09	-0.17726077	-0.03235989	-0.92799777	0	0	0.41	5.2758324e-18
2.720053176828848e-09	-0.15595733	-0.026964104	-0.9296881	0	0	0.41	4.321429e-18
2.730018953340449e-09	-0.16540658	-0.026086148	-0.92469984	0	0	0.41	5.0059118e-18
2.740064323617831e-09	-0.15466693	-0.033260107	-0.9225968	0	0	0.41	4.5338253e-18
2.750052449850143e-09	-0.14956854	-0.055991665	-0.92359143	0	0	0.41	4.5112785e-18
2.7600590761861933e-09	-0.14499606	-0.06294474	-0.9305223	0	0	0.41	4.6933574e-18
2.7700145418422197e-09	-0.15330692	-0.08269713	-0.9226907	0	0	0.41	4.604425e-18
2.7800093503524294e-09	-0.1529526	-0.076575466	-0.9214051	0	0	0.41	3.976855e-18
2.7900462854541108e-09	-0.15125869	-0.07334814	-0.91733813	0	0	0.41	5.024069e-18
2.8000431595798553e-09	-0.13417058	-0.060326364	-0.9197957	0	0	0.41	5.5132183e-18
2.810057161690105e-09	-0.11175201	-0.051078737	-0.9262517	0	0	0.41	5.3286615e-18
2.8200459412263165e-09	-0.10210958	-0.035611156	-0.92859846	0	0	0.41	4.8704084e-18
2.8300305781770677e-09	-0.07642501	-0.043033928	-0.9298138	0	0	0.41	4.8387613e-18
2.840042211520098e-09	-0.08358076	-0.05525648	-0.92354566	0	0	0.41	4.950718e-18
2.8500484466579753e-09	-0.08004486	-0.07246022	-0.9245013	0	0	0.41	3.6077313e-18
2.860042859313424e-09	-0.0815063	-0.08109368	-0.9240918	0	0	0.41	5.115972e-18
2.870014636218347e-09	-0.094169684	-0.06909568	-0.9328415	0	0	0.41	3.8041933e-18
2.88001399569608e-09	-0.114111766	-0.07964947	-0.93054605	0	0	0.41	4.8651765e-18
2.890030947143686e-09	-0.12528944	-0.0718321	-0.9285125	0	0	0.41	4.602907e-18
2.9000035083753354e-09	-0.12820052	-0.062070806	-0.9253051	0	0	0.41	4.7178503e-18
2.9100537793060064e-09	-0.1395207	-0.055867933	-0.9223273	0	0	0.41	5.161731e-18
2.9200147227734664e-09	-0.11582238	-0.07193437	-0.925788	0	0	0.41	4.894828e-18
2.9300015728925726e-09	-0.10922571	-0.10680829	-0.9279555	0	0	0.41	4.6788433e-18
2.940012386086559e-09	-0.09235515	-0.13256647	-0.92733335	0	0	0.41	4.8715524e-18
2.950008230867731e-09	-0.08757158	-0.13525054	-0.9274776	0	0	0.41	4.847297e-18
2.9600514362294706e-09	-0.08096138	-0.14376737	-0.92658544	0	0	0.41	5.7086207e-18
2.970031172077582e-09	-0.090049244	-0.15425074	-0.92596513	0	0	0.41	5.044439e-18
2.980034198757717e-09	-0.10481209	-0.15430954	-0.92724687	0	0	0.41	6.1155514e-18
2.9900636388589184e-09	-0.089605175	-0.1263709	-0.932618	0	0	0.41	5.2223713e-18
3.000022415613932e-09	-0.08795834	-0.12878789	-0.929431	0	0	0.41	4.673936e-18
3.0100566307434053e-09	-0.07946123	-0.12428026	-0.9268327	0	0	0.41	4.899015e-18
3.020048970412061e-09	-0.05543072	-0.11823826	-0.9297022	0	0	0.41	4.4354446e-18
3.0300190901987237e-09	-0.03315986	-0.13300936	-0.93094325	0	0	0.41	4.335222e-18
3.0400312039988048e-09	-0.03876669	-0.14719109	-0.9335177	0	0	0.41	4.5562866e-18
3.050027941105523e-09	-0.059409216	-0.1520119	-0.9363432	0	0	0.41	5.0148346e-18
3.0600381165990502e-09	-0.06303747	-0.14571702	-0.9396302	0	0	0.41	4.4135094e-18
3.0700550585091157e-09	-0.08308371	-0.14758371	-0.9371604	0	0	0.41	5.2686198e-18
3.0800219873955696e-09	-0.09300625	-0.15687598	-0.9314465	0	0	0.41	5.3924475e-18
3.0900136950525328e-09	-0.087999165	-0.1399322	-0.93554604	0	0	0.41	4.3267915e-18
3.100052143422695e-09	-0.10161177	-0.12608929	-0.9282722	0	0	0.41	5.1772904e-18
3.1100189313515477e-09	-0.096116826	-0.13413039	-0.92297935	0	0	0.41	4.7662043e-18
3.120011092443029e-09	-0.06414175	-0.118214495	-0.9236175	0	0	0.41	4.928213e-18
3.1300338724895794e-09	-0.049732696	-0.14401728	-0.92347145	0	0	0.41	4.626283e-18
3.140020580336204e-09	-0.05111137	-0.16329613	-0.92910385	0	0	0.41	3.676954e-18
3.150064144850377e-09	-0.044263728	-0.16205487	-0.9355565	0	0	0.41	4.7206676e-18
3.1600425321464337e-09	-0.056056064	-0.17429551	-0.9362278	0	0	0.41	4.38817e-18
3.1700633649890573e-09	-0.06915939	-0.17905234	-0.9281947	0	0	0.41	4.3693678e-18
3.180020282915056e-09	-0.06996233	-0.17767814	-0.9307218	0	0	0.41	5.0791963e-18
3.1900355903026024e-09	-0.07710557	-0.16785438	-0.93099886	0	0	0.41	4.520398e-18
3.2000367846235068e-09	-0.070520416	-0.15218088	-0.93435234	0	0	0.41	3.9693846e-18
3.210050819450447e-09	-0.027142081	-0.16866618	-0.9376975	0	0	0.41	4.565497e-18
3.2200405115806243e-09	-0.0063616326	-0.1674997	-0.93736845	0	0	0.41	3.761768e-18
3.2300373148368873e-09	-0.0014768374	-0.18285787	-0.9366476	0	0	0.41	4.295835e-18
3.240028067986167e-09	-0.004536368	-0.19023672	-0.9382862	0	0	0.41	4.2088683e-18
3.2500459980246116e-09	-0.009497306	-0.18976341	-0.9410636	0	0	0.41	4.537576e-18
3.260032532982759e-09	-0.014909302	-0.1904078	-0.93755496	0	0	0.41	3.9389274e-18
3.270019460582376e-09	-0.03359498	-0.1597195	-0.94479895	0	0	0.41	4.939484e-18
3.2800652955422132e-09	-0.033484176	-0.1634423	-0.94197345	0	0	0.41	4.338367e-18
3.290037314674343e-09	-0.03601968	-0.1644377	-0.94023544	0	0	0.41	4.1634507e-18
3.300008439887009e-09	-0.027960371	-0.16809598	-0.93633294	0	0	0.41	3.7460032e-18
3.3100634467992287e-09	-0.0125545785	-0.1870575	-0.93310434	0	0	0.41	6.144104e-18
3.320055096980365e-09	-0.0013372557	-0.17430045	-0.9360807	0	0	0.41	5.554391e-18
3.3300424640937946e-09	0.00949376	-0.18389171	-0.9414407	0	0	0.41	3.933493e-18
3.3400125954452705e-09	0.017066162	-0.18873565	-0.93884647	0	0	0.41	5.126964e-18
3.3500604545717123e-09	0.0012378575	-0.17966656	-0.9451479	0	0	0.41	4.362856e-18
3.3600089046466394e-09	0.003851416	-0.18391053	-0.94182	0	0	0.41	4.6293163e-18
3.370063370520467e-09	-0.005657694	-0.17113413	-0.94198376	0	0	0.41	3.5690606e-18
3.3800131838738687e-09	-0.010598524	-0.16267346	-0.9408874	0	0	0.41	6.2205864e-18
3.3900412586492213e-09	-0.009745664	-0.15825288	-0.939773	0	0	0.41	4.813419e-18
3.4000059342538677e-09	-0.01723928	-0.15071952	-0.93858135	0	0	0.41	5.056046e-18
3.410019773875039e-09	0.0005929599	-0.14704011	-0.94200855	0	0	0.41	3.658365e-18
3.4200458266985032e-09	-0.0014874301	-0.15101887	-0.94064224	0	0	0.41	4.4494413e-18
3.4300085534502264e-09	-0.012608637	-0.16063619	-0.94269824	0	0	0.41	4.6835554e-18
3.4400184212671566e-09	-0.026496924	-0.15488705	-0.94370395	0	0	0.41	3.9952935e-18
3.4500341908215944e-09	-0.024077613	-0.14673646	-0.9426356	0	0	0.41	5.3612313e-18
3.4600432793597673e-09	-0.027466089	-0.15249152	-0.93541956	0	0	0.41	3.9213763e-18
3.4700076394389754e-09	-0.004032553	-0.14654104	-0.93286777	0	0	0.41	4.4609263e-18
3.480056507627754e-09	0.030054832	-0.13912192	-0.9366709	0	0	0.41	4.280675e-18
3.490036646376077e-09	0.03966806	-0.14216638	-0.93514955	0	0	0.41	4.9462373e-18
3.5000565620171047e-09	0.053821687	-0.15775365	-0.9353215	0	0	0.41	5.1814354e-18
3.5100597703783733e-09	0.06530922	-0.17495312	-0.9332203	0	0	0.41	5.314043e-18
3.520050019002552e-09	0.07396047	-0.199223	-0.9330263	0	0	0.41	4.083241e-18
3.5300284856016616e-09	0.07120241	-0.19302745	-0.93193406	0	0	0.41	3.9705054e-18
3.54000724258259e-09	0.07264652	-0.18660629	-0.9340066	0	0	0.41	4.2599462e-18
3.5500073430991728e-09	0.07557184	-0.16141956	-0.93227834	0	0	0.41	4.7072603e-18
3.560063537173033e-09	0.07730283	-0.18366268	-0.93272483	0	0	0.41	5.373782e-18
3.570024364141917e-09	0.07925779	-0.17401086	-0.93088204	0	0	0.41	5.269935e-18
3.580011654953429e-09	0.087848306	-0.16921148	-0.9263943	0	0	0.41	3.68601e-18
3.590032665654849e-09	0.10322571	-0.17070778	-0.9276861	0	0	0.41	4.5657702e-18
3.6000068339554784e-09	0.11531856	-0.17377582	-0.92646646	0	0	0.41	4.7517684e-18
3.6100085804420295e-09	0.122515306	-0.16726704	-0.92512214	0	0	0.41	4.9467204e-18
3.62003839952706e-09	0.12383099	-0.16290638	-0.9241262	0	0	0.41	4.2684186e-18
3.6300125514188844e-09	0.12794955	-0.16266213	-0.9248695	0	0	0.41	4.657883e-18
3.6400616175710244e-09	0.11618612	-0.15387562	-0.9269409	0	0	0.41	5.2521333e-18
3.650052377899207e-09	0.12572448	-0.14050719	-0.9261363	0	0	0.41	4.6819184e-18
3.6600518751032753e-09	0.14379694	-0.14768836	-0.92245406	0	0	0.41	5.3250496e-18
3.6700461856853494e-09	0.15527444	-0.1394168	-0.92885596	0	0	0.41	4.5762713e-18
3.6800562635123806e-09	0.13950023	-0.1367283	-0.9296018	0	0	0.41	4.9174882e-18
3.6900592034556034e-09	0.13944355	-0.11597104	-0.9334915	0	0	0.41	4.3995e-18
3.7000183850823177e-09	0.14042214	-0.10084357	-0.9416288	0	0	0.41	4.5209226e-18
3.710006318337044e-09	0.12122159	-0.09985352	-0.9395778	0	0	0.41	5.3182643e-18
3.720042848968659e-09	0.13966124	-0.10106877	-0.9411121	0	0	0.41	4.6913594e-18
3.730026518526296e-09	0.15253112	-0.09607002	-0.93852043	0	0	0.41	5.3005543e-18