# t (s)	mx ()	my ()	mz ()	B_extx (T)	B_exty (T)	B_extz (T)	E_total (J)
0	0	0	-1	0	0	0.38	1.0996098e-18
1.0054392362585974e-11	0.00017924761	-0.005472889	-0.97749984	0	0	0.38	4.2728366e-18
2.0011954184815514e-11	0.0028168403	-0.020646006	-0.9688782	0	0	0.38	3.346857e-18
3.006398306107193e-11	0.0028646472	-0.018705081	-0.96436524	0	0	0.38	4.637432e-18
4.0040250629989104e-11	0.034164388	-0.029911647	-0.96271676	0	0	0.38	4.7434552e-18
5.0028890633732005e-11	0.01825592	-0.051260192	-0.961466	0	0	0.38	4.480024e-18
6.006117710052421e-11	0.009132664	-0.05089704	-0.9610737	0	0	0.38	4.6384335e-18
7.00630019098794e-11	0.0120816	-0.075498305	-0.9581228	0	0	0.38	5.112466e-18
8.004067958713294e-11	0.0006488385	-0.07247618	-0.95896	0	0	0.38	4.984558e-18
9.003088624467164e-11	0.0020691403	-0.06805783	-0.9570679	0	0	0.38	4.7960635e-18
1.0002487457759509e-10	-0.009481596	-0.059152104	-0.95588994	0	0	0.38	5.843633e-18
1.1005738550165481e-10	-0.012200955	-0.047084056	-0.955334	0	0	0.38	3.1806623e-18
1.2003099660056684e-10	-0.009007895	-0.048322406	-0.9565098	0	0	0.38	5.4474554e-18
1.300091162251772e-10	-0.0016815084	-0.06171092	-0.95660985	0	0	0.38	4.5705327e-18
1.4005061936313492e-10	0.0025469156	-0.06934995	-0.9521662	0	0	0.38	4.3211378e-18
1.5003898633101253e-10	-0.007412497	-0.07807258	-0.9486986	0	0	0.38	4.8490647e-18
1.6005032072783667e-10	-0.011591523	-0.08986905	-0.9508649	0	0	0.38	3.580709e-18
1.7003130586221893e-10	-0.027141428	-0.10270735	-0.9513037	0	0	0.38	4.580296e-18
1.8006183707862286e-10	-0.017375764	-0.07904359	-0.94883406	0	0	0.38	4.156194e-18
1.900525737796717e-10	-0.0061920406	-0.081272066	-0.9523033	0	0	0.38	3.7828223e-18
2.0001202698721668e-10	-0.0063205566	-0.07232275	-0.9537431	0	0	0.38	3.814871e-18
2.1001371700890775e-10	-0.021448037	-0.07137503	-0.9536908	0	0	0.38	4.551953e-18
2.2001984230662945e-10	-0.029406032	-0.06528598	-0.9537647	0	0	0.38	4.3998965e-18
2.3003130382855644e-10	-0.024793945	-0.054054245	-0.95577776	0	0	0.38	3.8809573e-18
2.400516823932497e-10	-0.033598144	-0.059336722	-0.9587055	0	0	0.38	3.3242184e-18
2.500172410183302e-10	-0.042909905	-0.046731494	-0.9595125	0	0	0.38	4.3693384e-18
2.6003826332087737e-10	-0.047218967	-0.0302779	-0.9564344	0	0	0.38	4.785471e-18
2.7002745034333885e-10	-0.037410233	-0.034515314	-0.9505322	0	0	0.38	4.3646776e-18
2.800343294657062e-10	-0.05674566	-0.038132213	-0.95478696	0	0	0.38	3.999358e-18
2.900420121888987e-10	-0.04561136	-0.043818377	-0.9502914	0	0	0.38	5.0358793e-18
3.0002115011862413e-10	-0.043629743	-0.02817698	-0.9540701	0	0	0.38	5.549172e-18
3.1001626150437706e-10	-0.05517414	-0.034683738	-0.9525354	0	0	0.38	3.892711e-18
3.2000994526672917e-10	-0.07485955	-0.0172455	-0.9496348	0	0	0.38	4.0760313e-18
3.300048311719707e-10	-0.07933264	-0.019815082	-0.9491931	0	0	0.38	3.7543313e-18
3.4001976105019993e-10	-0.07093324	-0.01999336	-0.95054644	0	0	0.38	3.7661827e-18
3.500603468423816e-10	-0.048579004	-0.028297057	-0.95273954	0	0	0.38	5.579119e-18
3.6001838408562716e-10	-0.0428302	-0.015100664	-0.9553644	0	0	0.38	4.768129e-18
3.7000391765622954e-10	-0.056289833	-0.010738367	-0.9561067	0	0	0.38	3.9386776e-18
3.8000279219817726e-10	-0.06749637	0.005649717	-0.95312935	0	0	0.38	4.6056552e-18
3.900507095544497e-10	-0.06519756	0.013654034	-0.9529965	0	0	0.38	5.3272173e-18
4.000348878973489e-10	-0.07168862	0.0049942057	-0.95054954	0	0	0.38	4.5054026e-18
4.100514947113695e-10	-0.06527849	0.02224404	-0.95284164	0	0	0.38	3.9207174e-18
4.200352176099736e-10	-0.04621112	0.027685367	-0.95340747	0	0	0.38	4.832352e-18
4.300529705892359e-10	-0.040741153	0.008652354	-0.95572364	0	0	0.38	3.8313984e-18
4.4004052062171004e-10	-0.054927394	0.0010347108	-0.9549405	0	0	0.38	4.6267686e-18
4.500182425523015e-10	-0.051328305	0.0061833276	-0.958429	0	0	0.38	4.8211937e-18
4.600153254521511e-10	-0.05942791	0.019220952	-0.9593097	0	0	0.38	4.0919537e-18
4.700080379452724e-10	-0.042032283	0.042752232	-0.95525223	0	0	0.38	4.307563e-18
4.800362269837441e-10	-0.051919386	0.05183615	-0.95453477	0	0	0.38	4.1226727e-18
4.900310004220992e-10	-0.038222976	0.061026514	-0.9551982	0	0	0.38	4.155521e-18
5.000495028565822e-10	-0.03553327	0.063533016	-0.9545052	0	0	0.38	3.7298604e-18
5.100335265045179e-10	-0.006766827	0.06489538	-0.95673877	0	0	0.38	5.5965824e-18
5.20008821390724e-10	0.002441068	0.06299091	-0.95686895	0	0	0.38	4.947169e-18
5.300184867323292e-10	0.00375309	0.039535295	-0.9576202	0	0	0.38	5.329805e-18
5.400151483350617e-10	-0.0068772933	0.033478897	-0.95813656	0	0	0.38	3.9193004e-18
5.500171069558372e-10	-0.026703943	0.033676624	-0.9563648	0	0	0.38	3.6088294e-18
5.600154570767955e-10	-0.030597374	0.041342758	-0.9528562	0	0	0.38	4.98292e-18
5.700300359533472e-10	-0.028861325	0.043414388	-0.952838	0	0	0.38	5.3689795e-18
5.800265148983203e-10	-0.021681922	0.04526302	-0.95645124	0	0	0.38	3.863955e-18
5.900449982753084e-10	-0.005821721	0.04549314	-0.9547226	0	0	0.38	5.0186706e-18
6.000588658915383e-10	-0.009630811	0.035461858	-0.9564231	0	0	0.38	3.412958e-18
6.10015845179177e-10	0.0039926963	0.022550203	-0.95190793	0	0	0.38	5.0841283e-18
6.200407105104606e-10	0.003228291	0.005731348	-0.9500839	0	0	0.38	4.8665955e-18
6.300550671314792e-10	0.017940301	0.007140004	-0.95212364	0	0	0.38	4.0514595e-18
6.400013139204342e-10	0.0053757965	0.0032018817	-0.95211154	0	0	0.38	4.521313e-18
6.50034278791915e-10	0.004173039	0.01375108	-0.9525592	0	0	0.38	4.1927858e-18
6.600193967638441e-10	0.009285123	-0.0069606574	-0.946643	0	0	0.38	3.9789034e-18
6.700517977484617e-10	0.02534583	-0.035829403	-0.94381446	0	0	0.38	4.908619e-18
6.800382728194187e-10	0.01371296	-0.02691882	-0.9447954	0	0	0.38	4.465508e-18
6.900605638036973e-10	0.011601908	-0.020975264	-0.95164376	0	0	0.38	5.901587e-18
7.000157570584716e-10	-0.0013582789	-0.027926497	-0.9489993	0	0	0.38	4.6851973e-18
7.100053981788153e-10	0.002128088	-0.012717368	-0.94557095	0	0	0.38	4.2617052e-18
7.200403282140732e-10	0.0019287977	-0.013947191	-0.9466357	0	0	0.38	3.7568753e-18
7.300238997305429e-10	0.0026612224	0.0037396082	-0.94619733	0	0	0.38	4.590634e-18
7.400065290254712e-10	0.015922925	0.024919081	-0.9480986	0	0	0.38	4.4493665e-18
7.500606307691581e-10	0.036999114	0.025193313	-0.94775754	0	0	0.38	4.7305934e-18
7.600662076368583e-10	0.03629246	0.012163948	-0.9476398	0	0	0.38	4.7056055e-18
7.700332107351566e-10	0.04030472	0.010510827	-0.9450748	0	0	0.38	4.4419243e-18
7.80013694566746e-10	0.024169829	0.024693705	-0.9485422	0	0	0.38	4.1118147e-18
7.900633873007995e-10	0.03501753	0.020843606	-0.94783217	0	0	0.38	4.129438e-18
8.000403036298046e-10	0.033962984	-0.002529581	-0.94786984	0	0	0.38	4.6810862e-18
8.100104758867094e-10	0.028166529	0.02780764	-0.951044	0	0	0.38	5.047407e-18
8.20060196377597e-10	0.03320098	0.032686774	-0.9490258	0	0	0.38	4.1304e-18
8.300462464331052e-10	0.03242284	0.054844476	-0.9506661	0	0	0.38	4.4315192e-18
8.400404924818395e-10	0.0573069	0.048357293	-0.9487591	0	0	0.38	4.421354e-18
8.500135531989846e-10	0.06856241	0.037275586	-0.94879645	0	0	0.38	4.8189677e-18
8.600484484354848e-10	0.055474773	0.03134837	-0.95176256	0	0	0.38	3.6973352e-18
8.700296244441604e-10	0.05496986	0.040766425	-0.9515203	0	0	0.38	4.1749042e-18
8.800359013268633e-10	0.062762685	0.031126093	-0.95323354	0	0	0.38	4.87049e-18
8.900426947131116e-10	0.06444252	0.02264861	-0.9534975	0	0	0.38	4.800585e-18
9.000314968678303e-10	0.05837782	0.0141862575	-0.9534692	0	0	0.38	4.315163e-18
9.100357511211683e-10	0.032039322	0.017641257	-0.95269233	0	0	0.38	5.0878084e-18
9.200598630252213e-10	0.028895075	0.034195695	-0.95169353	0	0	0.38	6.330574e-18
9.300113273261185e-10	0.012980896	0.035471644	-0.95651543	0	0	0.38	4.3117497e-18
9.400029902759513e-10	0.03521616	0.0336608	-0.95872575	0	0	0.38	5.0482456e-18
9.500245072542916e-10	0.032516737	-0.003986024	-0.95538104	0	0	0.38	4.830007e-18
9.600592009814052e-10	0.026748728	-0.012217804	-0.95339614	0	0	0.38	4.1553956e-18
9.7003867580913e-10	0.027324198	-0.02980882	-0.9511346	0	0	0.38	3.6145373e-18
9.800047591191575e-10	0.012653797	-0.036922853	-0.9543517	0	0	0.38	3.962617e-18
9.900322729821399e-10	0.0019594578	-0.02972631	-0.9532749	0	0	0.38	4.3403953e-18
1.000009774703985e-09	-0.0014242445	-0.020990057	-0.95234424	0	0	0.38	5.140571e-18
1.0100056692549088e-09	0.0048217666	-0.027591238	-0.9521363	0	0	0.38	5.533048e-18
1.0200602992912607e-09	-0.0020576974	-0.012834089	-0.95385164	0	0	0.38	5.5001865e-18
1.0300254044754148e-09	0.010802122	-0.025909593	-0.95227313	0	0	0.38	5.1728753e-18
1.0400500093275117e-09	0.033282492	-0.04430784	-0.9507375	0	0	0.38	4.1135212e-18
1.050040037692635e-09	0.022387099	-0.05153976	-0.95249945	0	0	0.38	4.927015e-18
1.0600053048474429e-09	0.0212256	-0.07335098	-0.9501391	0	0	0.38	5.036276e-18
1.0700507456967553e-09	0.006796299	-0.081594855	-0.9516553	0	0	0.38	5.263279e-18
1.0800223553537227e-09	0.0011102202	-0.06726746	-0.9533571	0	0	0.38	4.4015807e-18
1.0900152979369558e-09	0.0027696558	-0.06700833	-0.9526213	0	0	0.38	5.2281405e-18
1.100006255903599e-09	0.00093441294	-0.056968242	-0.9538968	0	0	0.38	4.2041314e-18
1.1100473589783649e-09	0.017864378	-0.07187995	-0.94835854	0	0	0.38	4.6881983e-18
1.1200504998185584e-09	0.01340708	-0.06438958	-0.9501622	0	0	0.38	4.7334997e-18
1.1300327161705667e-09	0.018358923	-0.070744604	-0.9491206	0	0	0.38	4.793421e-18
1.1400514623859432e-09	0.022131234	-0.06982344	-0.94852495	0	0	0.38	5.0790614e-18
1.150057414335913e-09	0.009514785	-0.07994032	-0.9510116	0	0	0.38	4.5325093e-18
1.1600195109682302e-09	-0.020853572	-0.090034276	-0.9521151	0	0	0.38	4.1740084e-18
1.1700294167555948e-09	-0.022940852	-0.08523167	-0.95140374	0	0	0.38	4.4318584e-18
1.1800604791689528e-09	-0.03451301	-0.096243665	-0.9449604	0	0	0.38	4.1858313e-18
1.1900299189556619e-09	-0.010462499	-0.104494065	-0.94499874	0	0	0.38	3.765049e-18
1.2000154586549183e-09	-0.015371093	-0.09936456	-0.9461706	0	0	0.38	4.2832368e-18
1.2100140000039205e-09	-0.018283091	-0.10462017	-0.9486105	0	0	0.38	4.4095046e-18
1.2200514656814572e-09	-0.023002435	-0.10928759	-0.95266515	0	0	0.38	4.809353e-18
1.2300548448212689e-09	-0.012415778	-0.09617011	-0.9550078	0	0	0.38	4.206217e-18
1.2400326607507203e-09	-0.012719051	-0.07303049	-0.9584258	0	0	0.38	3.5451278e-18
1.250002475038874e-09	-0.033741616	-0.07624623	-0.9563236	0	0	0.38	4.803694e-18
1.2600497733795217e-09	-0.01930651	-0.062392306	-0.9562948	0	0	0.38	4.101701e-18
1.2700291747007399e-09	-0.00037606948	-0.05726386	-0.95803094	0	0	0.38	4.6587093e-18
1.2800151040810893e-09	0.00059517735	-0.05312729	-0.9539577	0	0	0.38	4.174546e-18
1.290062196572048e-09	-0.016342325	-0.050741307	-0.95662594	0	0	0.38	4.385625e-18
1.3000186127793348e-09	-0.014385952	-0.053999614	-0.9573943	0	0	0.38	3.68194e-18
1.3100279488706909e-09	-0.037725773	-0.06777645	-0.9502181	0	0	0.38	4.9989047e-18
1.320048321636724e-09	-0.038194284	-0.055279557	-0.9482762	0	0	0.38	4.485842e-18
1.3300317500071925e-09	-0.03540804	-0.048522025	-0.95185226	0	0	0.38	5.1362763e-18
1.3400068512514292e-09	-0.022336744	-0.021917049	-0.95392054	0	0	0.38	5.215185e-18
1.3500521213702708e-09	-0.0246379	-0.03651594	-0.95211595	0	0	0.38	5.0009375e-18
1.3600169954526475e-09	-0.013960918	-0.03530355	-0.9508646	0	0	0.38	3.982876e-18
1.3700502915803653e-09	-0.022599885	-0.031487092	-0.95211095	0	0	0.38	3.8719646e-18
1.3800257187569918e-09	-0.021000447	-0.028711615	-0.95079035	0	0	0.38	3.731926e-18
1.3900364585568277e-09	-0.02398428	-0.028918393	-0.9548224	0	0	0.38	6.1081643e-18
1.4000435017676938e-09	-0.03174937	-0.015958132	-0.95210737	0	0	0.38	4.578855e-18
1.410002310330892e-09	-0.013232001	-0.0048469375	-0.9524016	0	0	0.38	4.172345e-18
1.4200127377274352e-09	-0.022262054	-0.006839645	-0.95288336	0	0	0.38	4.5061508e-18
1.430017790717905e-09	-0.023049058	0.0050910893	-0.9549381	0	0	0.38	4.8589193e-18
1.4400554950398291e-09	-0.0018348271	0.0020463008	-0.95698583	0	0	0.38	4.401358e-18
1.4500395780025353e-09	0.017175933	0.018712131	-0.9562677	0	0	0.38	4.4881492e-18
1.4600017376256573e-09	0.028938709	0.031018332	-0.9509744	0	0	0.38	5.573714e-18
1.4700193600648788e-09	0.02021906	0.019257389	-0.95241004	0	0	0.38	5.310855e-18
1.480044338575996e-09	0.014876083	0.009393662	-0.95516413	0	0	0.38	4.2048428e-18
1.49005158531468e-09	-0.0064866557	0.0039809514	-0.95686114	0	0	0.38	4.6811247e-18
1.50004433575703e-09	-0.0013478624	0.010884083	-0.96011215	0	0	0.38	3.8912805e-18
1.510047864761029e-09	-0.01967786	-0.000341363	-0.95912343	0	0	0.38	4.1258445e-18
1.5200428464517932e-09	-0.039266024	0.008015957	-0.9553992	0	0	0.38	4.007709e-18
1.530008593238342e-09	-0.0296607	0.022914074	-0.95579964	0	0	0.38	4.5703412e-18
1.5400342531103972e-09	-0.031461947	0.02103872	-0.95707273	0	0	0.38	5.190101e-18
1.550010950697852e-09	-0.038948506	0.02859454	-0.95534915	0	0	0.38	4.623553e-18
1.5600181199999012e-09	-0.022555318	0.024732014	-0.9558405	0	0	0.38	4.7184032e-18
1.5700606433767572e-09	-0.032613173	0.052573673	-0.9529924	0	0	0.38	4.7821847e-18
1.580024360388231e-09	-0.036964826	0.06140059	-0.9520139	0	0	0.38	4.043535e-18
1.5900272710414456e-09	-0.027797464	0.049405877	-0.9514433	0	0	0.38	4.2785897e-18
1.6000565748569274e-09	-0.03596202	0.041850373	-0.94938254	0	0	0.38	4.0078766e-18
1.6100117112900215e-09	-0.03492937	0.04550163	-0.953299	0	0	0.38	4.918076e-18
1.6200186414987366e-09	-0.03398546	0.06413993	-0.94997644	0	0	0.38	4.8199165e-18
1.6300080932043625e-09	-0.020724569	0.053276982	-0.9485759	0	0	0.38	5.16848e-18
1.6400326727629186e-09	-0.013490195	0.059159003	-0.951218	0	0	0.38	4.4124163e-18
1.6500626617267133e-09	-0.023713056	0.06895652	-0.9519585	0	0	0.38	3.6206705e-18
1.6600386870912584e-09	-0.01635915	0.071894854	-0.9513222	0	0	0.38	4.1894006e-18
1.670008217608593e-09	-0.0032562083	0.073399864	-0.94612473	0	0	0.38	4.3446586e-18
1.6800153375115465e-09	0.0075001037	0.07649914	-0.9427624	0	0	0.38	4.6145387e-18
1.6900089496091786e-09	0.01504083	0.08949526	-0.9418601	0	0	0.38	3.7772024e-18
1.7000533400568587e-09	0.014303968	0.083558775	-0.9423332	0	0	0.38	4.564861e-18
1.7100152024941815e-09	0.020966271	0.06890411	-0.9431261	0	0	0.38	4.198402e-18
1.72004972122185e-09	0.022811964	0.0671145	-0.9396392	0	0	0.38	5.3805373e-18
1.730059695477372e-09	0.031460956	0.07990876	-0.9445561	0	0	0.38	3.1762187e-18
1.7400383791585676e-09	0.029825013	0.069448024	-0.94222885	0	0	0.38	4.7263533e-18
1.750001808450332e-09	0.013208982	0.07351929	-0.9488473	0	0	0.38	4.99354e-18
1.7600193653514534e-09	0.008904523	0.071614735	-0.9473292	0	0	0.38	4.9644775e-18
1.7700006310668556e-09	0.014619019	0.058004178	-0.95219076	0	0	0.38	4.8796294e-18
1.7800056109988066e-09	0.022260359	0.04285433	-0.95861864	0	0	0.38	4.6523686e-18
1.7900640501220786e-09	0.036341004	0.029417975	-0.95275277	0	0	0.38	4.565783e-18
1.8000567203981236e-09	0.039887864	0.0138427755	-0.95123816	0	0	0.38	5.3584235e-18
1.8100113738933079e-09	0.04059373	0.021040259	-0.9502684	0	0	0.38	4.5655034e-18
1.8200441973655192e-09	0.046210453	0.024159694	-0.9488624	0	0	0.38	3.8029484e-18
1.8300117010386112e-09	0.055995107	0.010171423	-0.94273007	0	0	0.38	4.7543546e-18
1.840026318487453e-09	0.05340099	-0.0074090087	-0.94218946	0	0	0.38	4.2508357e-18
1.8500247643787208e-09	0.044327993	-0.004844178	-0.9387359	0	0	0.38	4.4146096e-18
1.860028558603697e-09	0.051625796	0.0026993118	-0.9436892	0	0	0.38	3.8110407e-18
1.8700589045145596e-09	0.061978176	-0.0044446248	-0.94298476	0	0	0.38	4.6874903e-18
1.8800158832438923e-09	0.075130165	-0.009110023	-0.94446146	0	0	0.38	5.0694215e-18
1.8900644362134425e-09	0.0876612	-0.02652156	-0.9413417	0	0	0.38	5.344202e-18
1.9000068567767712e-09	0.09320228	-0.036185395	-0.94552636	0	0	0.38	4.864776e-18
1.9100082725819616e-09	0.09663125	-0.04392678	-0.9471564	0	0	0.38	4.0966087e-18
1.9200346983988677e-09	0.08106469	-0.057755776	-0.94648105	0	0	0.38	3.3414197e-18
1.9300070799661913e-09	0.08234981	-0.05266073	-0.9428505	0	0	0.38	4.0869505e-18
1.9400084246314e-09	0.0862481	-0.06493273	-0.9344709	0	0	0.38	4.769455e-18
1.9500529795269684e-09	0.07830207	-0.053112	-0.9341426	0	0	0.38	3.8237578e-18
1.9600641097404893e-09	0.08719692	-0.056713782	-0.93078613	0	0	0.38	4.382684e-18
1.9700628098526903e-09	0.065937966	-0.07109819	-0.9320733	0	0	0.38	3.9438855e-18
1.9800284629577195e-09	0.06789992	-0.06762008	-0.93922716	0	0	0.38	4.5530908e-18
1.9900594499190127e-09	0.089947574	-0.07188396	-0.9427505	0	0	0.38	4.59103e-18
2.000032458157403e-09	0.08077193	-0.099423096	-0.9404954	0	0	0.38	3.9614958e-18
2.0100586350671946e-09	0.057231452	-0.08779209	-0.9438238	0	0	0.38	3.7740963e-18
2.020036491885643e-09	0.051953763	-0.09365287	-0.9433286	0	0	0.38	5.3903154e-18
2.0300084399124195e-09	0.052360717	-0.10172545	-0.9438272	0	0	0.38	5.337313e-18
2.0400208912004866e-09	0.055195373	-0.10649314	-0.9378918	0	0	0.38	4.2297967e-18
2.050062822836078e-09	0.041982614	-0.10269893	-0.9397338	0	0	0.38	3.843405e-18
2.0600172605105837e-09	0.042623274	-0.10098228	-0.9366044	0	0	0.38	5.1644252e-18
2.0700611859210015e-09	0.04289566	-0.117919065	-0.9292488	0	0	0.38	5.1751004e-18
2.080009234271801e-09	0.035614043	-0.10359842	-0.9340163	0	0	0.38	4.6602797e-18
2.0900599176140817e-09	0.04595044	-0.12268714	-0.9323092	0	0	0.38	4.2756726e-18
2.1000464026147577e-09	0.020200297	-0.13280942	-0.93008286	0	0	0.38	5.2885577e-18
2.1100416694447774e-09	0.011593133	-0.13355923	-0.9285716	0	0	0.38	5.013211e-18
2.120046044944678e-09	0.009608875	-0.13232552	-0.93157464	0	0	0.38	4.155082e-18
2.1300311198315595e-09	0.006758753	-0.11300457	-0.93476456	0	0	0.38	4.067484e-18
2.140059620622556e-09	0.0050850925	-0.09693357	-0.94051886	0	0	0.38	4.0636067e-18
2.150014959111613e-09	0.018119037	-0.091067486	-0.9443497	0	0	0.38	3.937833e-18
2.1600606069049095e-09	0.026675245	-0.1021474	-0.9407299	0	0	0.38	4.626809e-18
2.170004242868547e-09	0.03297799	-0.106951475	-0.9391903	0	0	0.38	4.867152e-18
2.1800568596914563e-09	0.032431338	-0.10333997	-0.93225855	0	0	0.38	4.6936556e-18
2.1900481288689666e-09	0.024482341	-0.10758446	-0.93405676	0	0	0.38	3.8543486e-18
2.200009477518518e-09	0.0065497365	-0.11790733	-0.9287707	0	0	0.38	6.0546023e-18
2.210009708253842e-09	-0.019591322	-0.115127556	-0.9301951	0	0	0.38	5.0471885e-18
2.2200313390754987e-09	-0.042921696	-0.10066842	-0.92804503	0	0	0.38	4.2147454e-18
2.230061689470513e-09	-0.050099127	-0.10248734	-0.9310695	0	0	0.38	3.610626e-18
2.2400339858785726e-09	-0.0494739	-0.09969282	-0.9270967	0	0	0.38	5.745217e-18
2.250004376381882e-09	-0.051903713	-0.08922436	-0.9330857	0	0	0.38	4.058597e-18
2.260035808074212e-09	-0.06886511	-0.09715269	-0.9298737	0	0	0.38	4.474992e-18
2.2700140203162334e-09	-0.07599536	-0.08378791	-0.93324256	0	0	0.38	3.7685906e-18
2.2800515390447723e-09	-0.07720807	-0.114132	-0.9315332	0	0	0.38	4.1710483e-18
2.2900520461188212e-09	-0.092037044	-0.108349845	-0.9287532	0	0	0.38	4.678453e-18
2.3000229468200917e-09	-0.12266234	-0.10069209	-0.9305984	0	0	0.38	4.627647e-18
2.3100496786234607e-09	-0.12075429	-0.10236941	-0.93370485	0	0	0.38	3.774622e-18
2.320013429633679e-09	-0.14050096	-0.07754337	-0.9360876	0	0	0.38	4.5129357e-18
2.330026525597135e-09	-0.15238842	-0.064103946	-0.9317794	0	0	0.38	4.4747526e-18
2.340041467807361e-09	-0.14466585	-0.06639667	-0.9332567	0	0	0.38	3.760425e-18
2.350043658097129e-09	-0.15067348	-0.074517846	-0.9331014	0	0	0.38	3.9921097e-18
2.360012945996999e-09	-0.14677958	-0.056070317	-0.9309939	0	0	0.38	4.41684e-18
2.370055774799804e-09	-0.13983896	-0.050751925	-0.9358363	0	0	0.38	4.277236e-18
2.380020763783874e-09	-0.12964076	-0.053160924	-0.937078	0	0	0.38	4.460157e-18
2.3900347497227643e-09	-0.14473689	-0.04926187	-0.9346416	0	0	0.38	5.5159704e-18
2.4000059871366634e-09	-0.13987406	-0.049407244	-0.9375011	0	0	0.38	4.9836995e-18
2.4100359041478773e-09	-0.13674474	-0.057405043	-0.9377813	0	0	0.38	4.5311333e-18
2.4200241634463297e-09	-0.15106073	-0.048032004	-0.94196534	0	0	0.38	3.5029693e-18
2.4300420776417657e-09	-0.13123092	-0.016586602	-0.94256395	0	0	0.38	5.015942e-18
2.4400628759980757e-09	-0.116701186	0.0041752355	-0.94326013	0	0	0.38	3.9372424e-18
2.450039099025635e-09	-0.105390236	0.008986509	-0.9444292	0	0	0.38	4.571498e-18
2.4600045059696702e-09	-0.11454755	0.01753488	-0.944543	0	0	0.38	4.340918e-18
2.470006379666013e-09	-0.103508234	0.007432143	-0.94237703	0	0	0.38	4.3841635e-18
2.4800104539890592e-09	-0.10789313	0.017783932	-0.943776	0	0	0.38	4.2742784e-18
2.490064734348803e-09	-0.11916787	0.041044977	-0.94234085	0	0	0.38	4.051165e-18
2.500029301137967e-09	-0.106236786	0.04068124	-0.95096236	0	0	0.38	4.1943376e-18
2.5100121479675423e-09	-0.10163261	0.055651903	-0.9506412	0	0	0.38	4.3118506e-18
2.520051006627198e-09	-0.09690592	0.06967045	-0.9425794	0	0	0.38	4.0159375e-18
2.530026717774312e-09	-0.094430424	0.06784296	-0.9404802	0	0	0.38	5.3626235e-18
2.540048465280735e-09	-0.09108706	0.051461685	-0.94046855	0	0	0.38	4.5814883e-18
2.5500314874085308e-09	-0.08392295	0.050353933	-0.9440327	0	0	0.38	4.53095e-18
2.5600028472073038e-09	-0.08251611	0.043448452	-0.9417293	0	0	0.38	5.509498e-18
2.570057673963459e-09	-0.09313256	0.027338214	-0.94134384	0	0	0.38	4.6950035e-18
2.580012147461531e-09	-0.092705674	0.039404955	-0.9385272	0	0	0.38	4.0780575e-18
2.5900073843872735e-09	-0.10049384	0.051651716	-0.94029295	0	0	0.38	4.9778737e-18
2.600040990069597e-09	-0.10683911	0.06557264	-0.9359617	0	0	0.38	4.0390526e-18
2.6100259748762686e-09	-0.10584177	0.07609512	-0.9325149	0	0	0.38	3.8664804e-18
2.620010094202688e-09	-0.11588931	0.104052015	-0.93060386	0	0	0.38	4.0071007e-18
2.630001259656124e-09	-0.11159486	0.11209293	-0.9310301	0	0	0.38	4.2023186e-18
2.640010637116479e-09	-0.114973456	0.11994598	-0.92506033	0	0	0.38	4.1384173e-18
2.6500107152717917e-09	-0.123012066	0.11707828	-0.9242122	0	0	0.38	4.0204208e-18
2.6600006225543836e-09	-0.14709882	0.097370856	-0.9297506	0	0	0.38	3.991426e-18
2.6700528032542807e-09	-0.12673472	0.10307179	-0.9320094	0	0	0.38	4.655887e-18
2.680021926082791e-09	-0.12852876	0.11074782	-0.93078434	0	0	0.38	4.375465e-18
2.690028205072469e-09	-0.13034348	0.1113705	-0.9320886	0	0	0.38	5.052134e-18
2.70001206534326e-09	-0.12677135	0.10563729	-0.93110305	0	0	0.38	4.9148603e-18
2.710022597680482e-09	-0.11018002	0.13449253	-0.9344482	0	0	0.38	4.076641e-18
2.7200521862792336e-09	-0.07916933	0.14605927	-0.9345338	0	0	0.38	5.231302e-18
2.7300151316274453e-09	-0.08022613	0.12997614	-0.9333744	0	0	0.38	4.6781774e-18
2.740006506360621e-09	-0.08460696	0.14573084	-0.93357587	0	0	0.38	4.476867e-18
2.7500638680544865e-09	-0.07491568	0.13853952	-0.9329096	0	0	0.38	4.619394e-18
2.7600417573016553e-09	-0.06449456	0.13002981	-0.93240434	0	0	0.38	4.1214787e-18
2.770062773456294e-09	-0.07099202	0.14448775	-0.93040717	0	0	0.38	3.330801e-18
2.780024673591133e-09	-0.07397172	0.14699596	-0.9293726	0	0	0.38	4.2824513e-18
2.790007027411741e-09	-0.081742115	0.1544628	-0.92647827	0	0	0.38	4.7040943e-18
2.800013848432296e-09	-0.089378394	0.17299272	-0.9265992	0	0	0.38	5.079188e-18
2.8100620869020743e-09	-0.094484754	0.17890087	-0.92199224	0	0	0.38	4.705997e-18
2.8200259445205325e-09	-0.07916309	0.18389434	-0.9261938	0	0	0.38	4.922483e-18
2.830052002818812e-09	-0.06225762	0.1885571	-0.93086356	0	0	0.38	3.4706124e-18
2.8400265621061724e-09	-0.050101224	0.20691809	-0.9276843	0	0	0.38	4.2295097e-18
2.8500044863787507e-09	-0.04976278	0.2202207	-0.9228083	0	0	0.38	3.5246563e-18
2.8600302580357294e-09	-0.04731517	0.20923272	-0.9247175	0	0	0.38	4.6982932e-18
2.870058333758448e-09	-0.055657446	0.21051194	-0.9213505	0	0	0.38	4.978653e-18
2.880018131111862e-09	-0.04227755	0.20952585	-0.91942924	0	0	0.38	5.773928e-18
2.890055513472708e-09	-0.035474095	0.20368153	-0.9262014	0	0	0.38	4.1182907e-18
2.9000299426987898e-09	-0.025856417	0.20090954	-0.9287959	0	0	0.38	4.1231984e-18
2.9100000993607347e-09	-0.011671863	0.21236911	-0.92362475	0	0	0.38	4.0925555e-18
2.9200153621858624e-09	-0.009783815	0.22427668	-0.9220201	0	0	0.38	5.473599e-18
2.9300409120768057e-09	-0.0015509106	0.24258962	-0.9174456	0	0	0.38	5.4550754e-18
2.9400645097948186e-09	0.0148285795	0.24490595	-0.9129169	0	0	0.38	3.9461007e-18
2.9500390485375587e-09	0.023381134	0.23354697	-0.91390437	0	0	0.38	4.879832e-18
2.960037075395855e-09	0.033267464	0.21602488	-0.91549903	0	0	0.38	4.206368e-18
2.970049645530016e-09	0.039800964	0.21374185	-0.9171777	0	0	0.38	4.9659937e-18
2.980036865344426e-09	0.033482842	0.21600768	-0.91524094	0	0	0.38	5.346294e-18
2.9900428556930394e-09	0.046373535	0.23339194	-0.9127688	0	0	0.38	4.2335033e-18
3.000055447433888e-09	0.052331172	0.24192941	-0.90874004	0	0	0.38	4.4481724e-18
3.0100279289696575e-09	0.053374793	0.23698941	-0.91281	0	0	0.38	4.3675455e-18
3.020016169818444e-09	0.07549246	0.24404135	-0.9033591	0	0	0.38	3.9501493e-18
3.030057502747086e-09	0.08615725	0.23437925	-0.90269035	0	0	0.38	3.5924863e-18
3.0400330225980247e-09	0.08749916	0.23834614	-0.9054609	0	0	0.38	3.8357337e-18
3.0500174715205473e-09	0.11235911	0.23678239	-0.90764457	0	0	0.38	3.5087227e-18
3.0600018312321094e-09	0.13225621	0.2367491	-0.8998432	0	0	0.38	5.0053605e-18
3.0700015919017075e-09	0.11570032	0.22175662	-0.90516037	0	0	0.38	4.493632e-18
3.080059227527887e-09	0.122792624	0.20595104	-0.91014713	0	0	0.38	4.978106e-18
3.090029046412155e-09	0.11522412	0.21063203	-0.913546	0	0	0.38	4.0559317e-18
3.1000605667342037e-09	0.11421822	0.20892607	-0.9125223	0	0	0.38	4.026329e-18
3.110041238406128e-09	0.117606334	0.21722774	-0.9151506	0	0	0.38	3.928485e-18
3.120058962101048e-09	0.12460537	0.22197682	-0.9121408	0	0	0.38	5.187372e-18
3.130005148572158e-09	0.12754557	0.20658197	-0.91355556	0	0	0.38	3.9632514e-18
3.140007685254639e-09	0.12378303	0.21396247	-0.91132265	0	0	0.38	4.436967e-18
3.1500579389031247e-09	0.13352914	0.22173391	-0.9026357	0	0	0.38	4.3033894e-18
3.1600083162837795e-09	0.12684667	0.23665474	-0.90079683	0	0	0.38	4.4691253e-18
3.1700458285432858e-09	0.1289223	0.2327378	-0.9003138	0	0	0.38	4.61378e-18
3.1800312875156093e-09	0.11132347	0.21481554	-0.91262186	0	0	0.38	5.5322605e-18
3.190061565518448e-09	0.09408421	0.20147984	-0.9178116	0	0	0.38	4.8062705e-18
3.200048475077431e-09	0.08459967	0.18396755	-0.92434365	0	0	0.38	4.4703678e-18
3.2100229259534594e-09	0.09296267	0.1812279	-0.9278291	0	0	0.38	3.9955243e-18
3.2200439453871723e-09	0.07784821	0.19248536	-0.93080753	0	0	0.38	4.293898e-18
3.2300539911896973e-09	0.09652468	0.2102168	-0.9239102	0	0	0.38	5.0093582e-18
3.2400463761607005e-09	0.11225898	0.2077052	-0.9242952	0	0	0.38	4.405912e-18
3.2500517921573125e-09	0.13410349	0.19707036	-0.92464495	0	0	0.38	3.8519018e-18
3.2600400689296903e-09	0.13949801	0.18814401	-0.92688227	0	0	0.38	4.4657686e-18
3.2700356803775163e-09	0.14977123	0.16044326	-0.93069667	0	0	0.38	4.3923944e-18
3.280024203736613e-09	0.1675905	0.13459404	-0.9259944	0	0	0.38	4.5706423e-18
3.2900570612756703e-09	0.1494642	0.12229359	-0.93149686	0	0	0.38	5.00484e-18
3.3000491840961455e-09	0.16591366	0.12822628	-0.92315763	0	0	0.38	4.651578e-18
3.3100013616956634e-09	0.15877905	0.14620282	-0.9249069	0	0	0.38	4.7586373e-18
3.320064311972672e-09	0.15496586	0.15121016	-0.92263025	0	0	0.38	3.8194457e-18
3.330011356859682e-09	0.16754027	0.12779526	-0.9255093	0	0	0.38	3.7674557e-18
3.3400285840096815e-09	0.16848458	0.13154867	-0.92703915	0	0	0.38	4.9416733e-18
3.3500339015342966e-09	0.17564616	0.10355817	-0.9281306	0	0	0.38	3.9565778e-18
3.36004651006983e-09	0.15307133	0.08381181	-0.93224084	0	0	0.38	4.9327944e-18
3.3700378042856536e-09	0.15189947	0.082453564	-0.9310775	0	0	0.38	4.3637206e-18
3.3800414477347546e-09	0.14520675	0.07184848	-0.92917496	0	0	0.38	5.603923e-18
3.390049647212981e-09	0.14332406	0.07467646	-0.92964983	0	0	0.38	4.485294e-18
3.40006111119055e-09	0.15077977	0.06653009	-0.93461406	0	0	0.38	4.729138e-18
3.4100652360897066e-09	0.16781431	0.038762327	-0.93612987	0	0	0.38	4.946618e-18
3.4200305595354507e-09	0.16038656	0.023551142	-0.93854403	0	0	0.38	4.307709e-18
3.4300256590077266e-09	0.15179172	0.018323729	-0.93866485	0	0	0.38	4.97053e-18
3.440046847443561e-09	0.15639825	0.01471071	-0.9390902	0	0	0.38	4.708619e-18
3.4500120338152803e-09	0.12850457	0.0146886315	-0.93976843	0	0	0.38	4.6002694e-18
3.4600154335689005e-09	0.13446628	0.004423475	-0.9379686	0	0	0.38	4.38763e-18
3.470057236480358e-09	0.119364746	0.011469333	-0.94292206	0	0	0.38	4.716518e-18
3.480050638187964e-09	0.111105576	0.02385631	-0.94619554	0	0	0.38	4.8829166e-18
3.4900391513490797e-09	0.10392744	0.020592088	-0.9497355	0	0	0.38	3.7342047e-18
3.5000454719338945e-09	0.1138745	0.029344112	-0.94935435	0	0	0.38	4.0166972e-18
3.5100020437219232e-09	0.11905123	0.015237749	-0.9462468	0	0	0.38	4.5764144e-18
3.5200398773708334e-09	0.113714285	0.02471225	-0.94820166	0	0	0.38	4.676545e-18
3.5300305742325545e-09	0.11507085	-0.0058107753	-0.94135094	0	0	0.38	4.1630673e-18
3.540036946435238e-09	0.08641268	-0.042978268	-0.9460389	0	0	0.38	4.5939092e-18
3.550008100735e-09	0.07474258	-0.07192499	-0.94486165	0	0	0.38	4.375646e-18
3.560021455761885e-09	0.0674331	-0.06639139	-0.9467286	0	0	0.38	4.8588105e-18
3.570030537909764e-09	0.06075094	-0.076618634	-0.9483355	0	0	0.38	3.674759e-18
3.5800021743880806e-09	0.04855014	-0.07936421	-0.9449558	0	0	0.38	4.638024e-18
3.5900096841291064e-09	0.06596878	-0.09457193	-0.9420661	0	0	0.38	4.554285e-18
3.6000567647983152e-09	0.06783526	-0.108253196	-0.939396	0	0	0.38	5.490237e-18
3.6100571043691173e-09	0.065607205	-0.106932	-0.93904567	0	0	0.38	4.5851573e-18
3.6200365346628815e-09	0.06383613	-0.11465838	-0.9397078	0	0	0.38	4.222087e-18
3.6300030615597165e-09	0.055656493	-0.117545985	-0.9417744	0	0	0.38	4.472555e-18
3.6400392457410984e-09	0.05501576	-0.11737252	-0.9399495	0	0	0.38	4.4146435e-18
3.6500297088827373e-09	0.054063994	-0.12108987	-0.9399342	0	0	0.38	4.2723072e-18
3.6600274317582044e-09	0.045813378	-0.11516909	-0.9433902	0	0	0.38	4.4088855e-18
3.6700192020941672e-09	0.04694743	-0.12210014	-0.9405426	0	0	0.38	4.7304623e-18
3.6800338945290594e-09	0.036552157	-0.14078213	-0.94122744	0	0	0.38	4.3696155e-18
3.6900447937926577e-09	0.042837143	-0.11421568	-0.9473117	0	0	0.38	4.1012893e-18
3.7000376833181957e-09	0.037256766	-0.10951197	-0.94848406	0	0	0.38	4.498357e-18
3.7100574781036254e-09	0.028729144	-0.1296448	-0.9503683	0	0	0.38	4.156255e-18