# t (s)	mx ()	my ()	mz ()	B_extx (T)	B_exty (T)	B_extz (T)	E_total (J)
0	0	0	-1	0	0	0.38	1.0996098e-18
1.0034481923250463e-11	-0.004243991	0.014648969	-0.9744251	0	0	0.38	3.0775176e-18
2.0003685914571327e-11	-0.01287148	0.01005923	-0.9693614	0	0	0.38	4.3684277e-18
3.003827351822466e-11	-0.00489383	0.0066237217	-0.9657812	0	0	0.38	5.211775e-18
4.0054793748233094e-11	-0.007873328	0.010879808	-0.9603232	0	0	0.38	4.785894e-18
5.001485662945655e-11	-0.024871014	0.0010199518	-0.95965874	0	0	0.38	4.159303e-18
6.005785602174477e-11	-0.018325584	-0.0007002727	-0.9601354	0	0	0.38	3.527018e-18
7.000149172753626e-11	0.0022210327	0.009221447	-0.9573256	0	0	0.38	4.838104e-18
8.000291596666569e-11	0.011001862	0.014931443	-0.9595087	0	0	0.38	4.2235164e-18
9.001528228206054e-11	0.023320151	0.023880381	-0.9578501	0	0	0.38	4.257616e-18
1.0005326583862962e-10	0.014213057	0.017516185	-0.9578555	0	0	0.38	4.1699986e-18
1.1003400739394783e-10	0.02800317	0.0025010286	-0.95897835	0	0	0.38	3.705563e-18
1.2005260332288737e-10	0.008767115	0.00046777725	-0.956445	0	0	0.38	4.895764e-18
1.300046912522844e-10	0.019750593	0.00787065	-0.9571438	0	0	0.38	3.2634105e-18
1.4000234961332176e-10	0.03540892	0.0070024263	-0.9586285	0	0	0.38	4.2008826e-18
1.5001517321353933e-10	0.019747509	-0.0082753245	-0.9557107	0	0	0.38	4.6727975e-18
1.6006131939408185e-10	0.027056785	-0.0029688769	-0.9523209	0	0	0.38	4.432035e-18
1.7002834659067881e-10	0.033477046	-0.011338627	-0.9513708	0	0	0.38	4.7162273e-18
1.8004054171711234e-10	0.02836384	-0.013981608	-0.95845187	0	0	0.38	4.6993185e-18
1.9006073918658158e-10	0.022066968	-0.010468198	-0.96004575	0	0	0.38	4.605238e-18
2.0000069892850572e-10	0.027806561	-0.030007819	-0.9534175	0	0	0.38	4.7814787e-18
2.100332745846072e-10	0.02191323	-0.033507288	-0.9551525	0	0	0.38	4.2053213e-18
2.2002493972980946e-10	0.024446286	-0.026294718	-0.95538753	0	0	0.38	4.6804663e-18
2.3002481477226634e-10	0.024590716	-0.005642784	-0.9584463	0	0	0.38	4.3859544e-18
2.400615036721265e-10	0.031668562	-0.0050495802	-0.9596832	0	0	0.38	3.8985055e-18
2.5003017848420537e-10	0.03775847	-0.015274555	-0.956822	0	0	0.38	3.9391855e-18
2.6003737412938207e-10	0.04810951	-0.014211154	-0.95203847	0	0	0.38	4.6167283e-18
2.700515045750719e-10	0.029943915	-0.019079013	-0.9554103	0	0	0.38	4.610092e-18
2.8000232149198217e-10	0.026614804	-0.032525703	-0.95471597	0	0	0.38	4.6763117e-18
2.900369091595558e-10	0.01089443	-0.03471741	-0.95383906	0	0	0.38	4.4022234e-18
3.0005549479684096e-10	0.0151531845	-0.018441621	-0.9501442	0	0	0.38	4.662142e-18
3.100555300568032e-10	0.020776251	-0.01658879	-0.9508876	0	0	0.38	3.7098492e-18
3.2005853589986323e-10	0.0025639734	-0.022434108	-0.95383525	0	0	0.38	5.6897594e-18
3.3003129247688383e-10	0.011415514	-0.008175928	-0.9551931	0	0	0.38	5.271479e-18
3.400637457451882e-10	0.025927205	-0.026741901	-0.9594223	0	0	0.38	5.0763073e-18
3.500523964732064e-10	0.0033030263	-0.02880066	-0.9574968	0	0	0.38	4.9056372e-18
3.600452233703016e-10	-0.0065498394	-0.01449789	-0.9588462	0	0	0.38	4.5742372e-18
3.7005456840841425e-10	-0.0011179767	-0.015098128	-0.96019465	0	0	0.38	4.3002084e-18
3.8002122120687316e-10	-0.003642512	-0.0046216655	-0.9620445	0	0	0.38	4.373421e-18
3.9001509127633127e-10	0.0045195343	0.002214777	-0.95784837	0	0	0.38	4.8198578e-18
4.0003615330015566e-10	0.0011990282	0.004144689	-0.9573857	0	0	0.38	3.752638e-18
4.100289064101737e-10	0.009052622	-0.014299887	-0.9589749	0	0	0.38	5.0887e-18
4.2001461616520917e-10	0.0058396156	0.0072195036	-0.95825493	0	0	0.38	5.3226777e-18
4.300247615627437e-10	0.026872287	0.01599141	-0.95419073	0	0	0.38	3.9436406e-18
4.400194660193296e-10	0.01593199	0.016795833	-0.9568528	0	0	0.38	3.757377e-18
4.500000375457726e-10	0.020502668	0.043028448	-0.955783	0	0	0.38	4.717789e-18
4.6004548158033947e-10	0.02072038	0.03382604	-0.95673436	0	0	0.38	4.9097016e-18
4.70062723119404e-10	0.03028319	0.02406345	-0.95525426	0	0	0.38	4.3515792e-18
4.800503744247657e-10	0.0355306	0.01855254	-0.95617014	0	0	0.38	4.473768e-18
4.900514044647617e-10	0.033878602	0.0019202315	-0.9565088	0	0	0.38	4.509837e-18
5.0002094693647e-10	0.013124359	0.018363573	-0.95507187	0	0	0.38	4.6630243e-18
5.100283532245986e-10	0.009597022	0.024274591	-0.95648336	0	0	0.38	4.4662827e-18
5.200585275836196e-10	0.008720928	0.033814114	-0.9577366	0	0	0.38	3.858912e-18
5.300158894759086e-10	-0.0009047903	0.032926247	-0.95581293	0	0	0.38	4.5484826e-18
5.400569915646432e-10	0.011777069	0.05504137	-0.9578441	0	0	0.38	4.9707843e-18
5.500214529717776e-10	0.011168108	0.05185603	-0.95662475	0	0	0.38	4.668903e-18
5.60055953015598e-10	0.015956588	0.040103164	-0.9579352	0	0	0.38	3.0456863e-18
5.700251717976229e-10	0.0065060225	0.044117097	-0.95557225	0	0	0.38	3.863213e-18
5.800504569285757e-10	-0.0022122525	0.026780274	-0.95620275	0	0	0.38	4.535301e-18
5.900246385526315e-10	-0.0017524975	0.019348739	-0.95641035	0	0	0.38	4.1025524e-18
6.000078061525118e-10	-0.02818999	0.028055647	-0.95534843	0	0	0.38	5.3706757e-18
6.100343130548808e-10	0.00083585357	0.03967085	-0.95404667	0	0	0.38	4.543507e-18
6.200528563325213e-10	0.00068826275	0.05017743	-0.9519285	0	0	0.38	5.0953958e-18
6.300624022000332e-10	0.0017696284	0.056649517	-0.94942063	0	0	0.38	4.835363e-18
6.400421828518019e-10	0.017243119	0.06326617	-0.9498279	0	0	0.38	3.99129e-18
6.500443695126806e-10	0.02385162	0.06910402	-0.9464595	0	0	0.38	4.6008427e-18
6.600165036787574e-10	0.021466272	0.04732729	-0.9475562	0	0	0.38	4.759919e-18
6.700301662063442e-10	0.00141444	0.0373823	-0.9462474	0	0	0.38	3.5797254e-18
6.800655185863647e-10	-0.014614223	0.031135458	-0.94584167	0	0	0.38	4.2968914e-18
6.900143784918794e-10	-0.022527127	0.037492502	-0.94846356	0	0	0.38	3.808722e-18
7.000026823848408e-10	-0.027517397	0.05155732	-0.9487691	0	0	0.38	4.7089353e-18
7.100271448208739e-10	-0.009524994	0.059247077	-0.95022523	0	0	0.38	4.644213e-18
7.200466199981271e-10	0.012213045	0.07123125	-0.9482929	0	0	0.38	5.6010554e-18
7.300528089264486e-10	0.024892287	0.06947571	-0.9518078	0	0	0.38	3.9908172e-18
7.400077258567017e-10	0.026187252	0.058535427	-0.94647676	0	0	0.38	4.500772e-18
7.500572915608803e-10	0.013662547	0.05968979	-0.94364667	0	0	0.38	4.494681e-18
7.600392366885877e-10	0.013602769	0.06428447	-0.94155884	0	0	0.38	4.7452237e-18
7.700224514363341e-10	0.019605476	0.07956391	-0.939915	0	0	0.38	4.3783567e-18
7.800641385161851e-10	0.014498842	0.07695662	-0.94287246	0	0	0.38	5.1307234e-18
7.900476626310428e-10	0.029403316	0.10188933	-0.94130844	0	0	0.38	4.80781e-18
8.000359601279727e-10	0.039499793	0.108000375	-0.9440361	0	0	0.38	4.5476045e-18
8.100287050674494e-10	0.059878703	0.09027358	-0.9471096	0	0	0.38	4.889073e-18
8.200607333972827e-10	0.05134483	0.0816305	-0.9404389	0	0	0.38	3.5496036e-18
8.300596545419546e-10	0.0636166	0.06728197	-0.9390972	0	0	0.38	4.7097786e-18
8.400301406649579e-10	0.079769686	0.058870174	-0.93379295	0	0	0.38	4.414016e-18
8.500036641314507e-10	0.07626107	0.047013395	-0.93304074	0	0	0.38	3.973709e-18
8.600067736721889e-10	0.07488357	0.05510248	-0.9315742	0	0	0.38	4.1464964e-18
8.700526296773999e-10	0.08738889	0.07735137	-0.9288212	0	0	0.38	5.4134103e-18
8.800088930656514e-10	0.09781017	0.07985759	-0.9239441	0	0	0.38	4.4407352e-18
8.900270413744046e-10	0.09044817	0.06838478	-0.92144054	0	0	0.38	4.376645e-18
9.00022922706818e-10	0.107391655	0.06930682	-0.92571884	0	0	0.38	4.316582e-18
9.100385114944018e-10	0.11863079	0.0525763	-0.93342763	0	0	0.38	4.338961e-18
9.20061130177586e-10	0.12775275	0.03739033	-0.9337208	0	0	0.38	4.7750246e-18
9.300323999358854e-10	0.1252483	0.02270707	-0.9387542	0	0	0.38	3.8585937e-18
9.40035248978324e-10	0.112613276	0.012005317	-0.9402438	0	0	0.38	3.548598e-18
9.500122014318647e-10	0.105904356	0.013401774	-0.9414351	0	0	0.38	5.1768615e-18
9.600439831686858e-10	0.105979465	0.013887867	-0.9418484	0	0	0.38	4.909904e-18
9.700286978308826e-10	0.105409764	0.015475252	-0.9444684	0	0	0.38	5.4757214e-18
9.80059762170733e-10	0.121763654	0.012999245	-0.9397289	0	0	0.38	5.1443946e-18
9.900168737162571e-10	0.122675985	0.02725163	-0.9433637	0	0	0.38	4.3408346e-18
1.0000612228977403e-09	0.117830284	0.011397412	-0.9459877	0	0	0.38	3.8315986e-18
1.0100466563779224e-09	0.12332351	0.016339906	-0.9431538	0	0	0.38	6.0357355e-18
1.0200299052229636e-09	0.11426415	0.017717522	-0.94417924	0	0	0.38	4.9913708e-18
1.0300533622511562e-09	0.117076196	0.021633122	-0.9426919	0	0	0.38	4.4937273e-18
1.0400466855471423e-09	0.10268356	0.020602634	-0.9453513	0	0	0.38	5.538057e-18
1.0500538135046862e-09	0.118184455	0.01565597	-0.9442911	0	0	0.38	4.536376e-18
1.0600097453026196e-09	0.11482949	0.0032401672	-0.9470926	0	0	0.38	5.0862372e-18
1.0700011137639818e-09	0.10715333	-0.009098899	-0.9444425	0	0	0.38	5.262829e-18
1.0800411820435075e-09	0.09766614	-0.0051887706	-0.945991	0	0	0.38	3.866334e-18
1.0900514001140932e-09	0.09016138	-0.015191287	-0.95053196	0	0	0.38	4.1631897e-18
1.1000296710107038e-09	0.08016471	-0.027509259	-0.94951695	0	0	0.38	4.4441834e-18
1.1100555256403447e-09	0.074021205	-0.031306732	-0.94277894	0	0	0.38	3.9072095e-18
1.1200309477560166e-09	0.08381929	-0.024704082	-0.9405788	0	0	0.38	4.6423216e-18
1.1300034356082124e-09	0.067265205	-0.021712763	-0.9379304	0	0	0.38	4.7263955e-18
1.1400621739380645e-09	0.060528006	-0.016217895	-0.9475143	0	0	0.38	5.2603525e-18
1.1500261027242476e-09	0.062035896	-0.023368586	-0.94951296	0	0	0.38	4.3207788e-18
1.1600345595961032e-09	0.049140535	-0.046513192	-0.94980884	0	0	0.38	4.3729197e-18
1.1700292041571789e-09	0.02601854	-0.06919821	-0.9463365	0	0	0.38	4.8578543e-18
1.180059943248094e-09	0.013751931	-0.0840725	-0.9465281	0	0	0.38	5.5801203e-18
1.1900607523505883e-09	-0.011460142	-0.08826083	-0.94241655	0	0	0.38	4.5086373e-18
1.2000424497798941e-09	-0.011927299	-0.07452388	-0.9451389	0	0	0.38	5.3175707e-18
1.2100413308791878e-09	-0.010546548	-0.07621728	-0.94243413	0	0	0.38	4.93591e-18
1.2200299161362888e-09	-0.01277124	-0.06395351	-0.9361345	0	0	0.38	5.143819e-18
1.2300520368643937e-09	-0.017619185	-0.077755265	-0.9324664	0	0	0.38	5.225712e-18
1.24001184349153e-09	-0.047419876	-0.083252065	-0.9340939	0	0	0.38	5.1882104e-18
1.250004493223182e-09	-0.044001505	-0.07727966	-0.9363196	0	0	0.38	4.2307302e-18
1.2600167293433165e-09	-0.051062446	-0.048193865	-0.9414684	0	0	0.38	4.99757e-18
1.2700023666818805e-09	-0.056867667	-0.040183406	-0.93918777	0	0	0.38	3.98901e-18
1.2800516449511243e-09	-0.048969362	-0.043272484	-0.94151795	0	0	0.38	4.1750705e-18
1.290054809755823e-09	-0.06188391	-0.037468392	-0.94161236	0	0	0.38	4.6589864e-18
1.300025683992669e-09	-0.049715288	-0.04811834	-0.9422241	0	0	0.38	4.408761e-18
1.3100146793224724e-09	-0.06672518	-0.052190922	-0.94494885	0	0	0.38	3.9714066e-18
1.3200589972875101e-09	-0.08554933	-0.03861717	-0.9436744	0	0	0.38	4.5554023e-18
1.3300306334288679e-09	-0.068745844	-0.029297452	-0.9421683	0	0	0.38	5.742288e-18
1.340059654906479e-09	-0.07013835	-0.01010596	-0.9419274	0	0	0.38	4.4026527e-18
1.35000337776068e-09	-0.05745792	-0.0016538497	-0.9438591	0	0	0.38	4.2084758e-18
1.360019418885033e-09	-0.03703087	-0.010752974	-0.9373381	0	0	0.38	5.362025e-18
1.3700103082881276e-09	-0.030484881	-0.01221438	-0.93444705	0	0	0.38	4.781067e-18
1.3800274564328728e-09	-0.012242595	-0.0011874842	-0.9335941	0	0	0.38	5.2646406e-18
1.3900129256779632e-09	-0.016335601	0.006860314	-0.93462265	0	0	0.38	4.12871e-18
1.4000480667263432e-09	-0.012262598	0.0150203435	-0.93742	0	0	0.38	4.1586394e-18
1.4100493571391116e-09	-0.013535575	0.01054161	-0.9433222	0	0	0.38	5.5901536e-18
1.4200482032560589e-09	-0.018104797	0.027618865	-0.94233394	0	0	0.38	4.524327e-18
1.4300557443532536e-09	-0.023325318	0.042569574	-0.9471732	0	0	0.38	4.4807472e-18
1.4400585654875671e-09	-0.011719685	0.045842223	-0.94786716	0	0	0.38	4.811932e-18
1.4500268576320322e-09	-0.0164691	0.04554856	-0.94636315	0	0	0.38	4.9669578e-18
1.4600041126744094e-09	-0.022936838	0.0391436	-0.9502541	0	0	0.38	4.061348e-18
1.4700267143949754e-09	-0.015962835	0.04326934	-0.94810593	0	0	0.38	4.4319196e-18
1.4800123685339296e-09	-0.023295261	0.026733251	-0.95212966	0	0	0.38	4.701683e-18
1.4900056788024459e-09	-0.013135396	0.009436527	-0.95098644	0	0	0.38	3.978503e-18
1.5000270518037556e-09	-0.010230524	0.012577237	-0.9461338	0	0	0.38	4.2390843e-18
1.5100576766088158e-09	-0.013763014	0.028454872	-0.95012766	0	0	0.38	5.182837e-18
1.520059627290403e-09	-0.022208044	0.018823558	-0.94712204	0	0	0.38	4.509737e-18
1.5300222097424104e-09	-0.012454622	0.038436152	-0.9506718	0	0	0.38	4.373393e-18
1.5400377896143856e-09	-0.00857092	0.06024518	-0.9501005	0	0	0.38	4.8479496e-18
1.5500041935597652e-09	0.0052887723	0.05613106	-0.95115924	0	0	0.38	4.934206e-18
1.5600426264344579e-09	0.016134014	0.0655876	-0.95062464	0	0	0.38	3.9157762e-18
1.5700094007763126e-09	0.015861804	0.057024404	-0.9499097	0	0	0.38	5.11739e-18
1.5800296738690802e-09	0.028224202	0.040440056	-0.95102626	0	0	0.38	5.048248e-18
1.5900236640188006e-09	0.016412076	0.018935906	-0.9460601	0	0	0.38	3.7082122e-18
1.6000195130676143e-09	0.02338478	0.021555413	-0.9415692	0	0	0.38	2.8304113e-18
1.6100123260259962e-09	0.017159175	0.016244505	-0.9397204	0	0	0.38	5.594903e-18
1.6200164802375053e-09	0.023464795	0.036538962	-0.9442663	0	0	0.38	5.2557253e-18
1.6300637749375193e-09	0.047758106	0.03988935	-0.94450504	0	0	0.38	4.1741974e-18
1.6400066568837844e-09	0.04532334	0.025417991	-0.9486138	0	0	0.38	3.7942953e-18
1.6500284980616303e-09	0.056895364	0.026617248	-0.94838923	0	0	0.38	4.5376357e-18
1.6600306931333983e-09	0.050956942	0.015550163	-0.94725823	0	0	0.38	5.2382437e-18
1.6700402498433544e-09	0.04688538	-0.0017442703	-0.9458819	0	0	0.38	4.0697232e-18
1.6800168143732142e-09	0.0561741	-0.0022569667	-0.93741775	0	0	0.38	4.750721e-18
1.6900616308040933e-09	0.04348511	-0.010374858	-0.93835765	0	0	0.38	5.1730697e-18
1.7000136068564558e-09	0.04755554	0.010254052	-0.93676996	0	0	0.38	4.3527017e-18
1.710057573107679e-09	0.047631007	0.019272843	-0.9346756	0	0	0.38	5.3557083e-18
1.720005838269914e-09	0.060980614	0.024481177	-0.9321964	0	0	0.38	4.0547335e-18
1.7300589773054975e-09	0.07463113	0.03633297	-0.93461704	0	0	0.38	5.2215375e-18
1.7400654555603705e-09	0.07542861	0.038667977	-0.93998635	0	0	0.38	3.674118e-18
1.7500400791237364e-09	0.08623982	0.022915501	-0.9451418	0	0	0.38	4.7086905e-18
1.7600313402858274e-09	0.079300866	-0.016547017	-0.9453461	0	0	0.38	5.2731163e-18
1.770053235707258e-09	0.069169454	-0.017028976	-0.9457578	0	0	0.38	4.4056417e-18
1.7800163348642817e-09	0.06147669	-0.024418492	-0.9389698	0	0	0.38	4.7633655e-18
1.7900183649664695e-09	0.050522298	-0.017824426	-0.9396213	0	0	0.38	3.8241743e-18
1.8000069571523234e-09	0.06698068	-0.0118452925	-0.9368301	0	0	0.38	3.60019e-18
1.810005803898747e-09	0.06394324	-0.0019639395	-0.93439764	0	0	0.38	4.6855274e-18
1.8200027931446298e-09	0.06706007	-0.012913429	-0.9386205	0	0	0.38	5.0338043e-18
1.8300376538851702e-09	0.088015616	-0.031070936	-0.93488705	0	0	0.38	5.7702155e-18
1.8400181087009493e-09	0.071963675	-0.041905697	-0.93872136	0	0	0.38	4.5618142e-18
1.8500491218502842e-09	0.07508739	-0.048645113	-0.9456885	0	0	0.38	3.9411206e-18
1.8600524898399113e-09	0.07008537	-0.07162592	-0.9423477	0	0	0.38	5.028346e-18
1.8700039316300193e-09	0.042061567	-0.07727158	-0.94778824	0	0	0.38	4.5257748e-18
1.8800430305653636e-09	0.038827524	-0.07124695	-0.9462108	0	0	0.38	4.058175e-18
1.8900387920941864e-09	0.028144324	-0.06432801	-0.94872326	0	0	0.38	4.1112477e-18
1.9000011090308978e-09	0.028526012	-0.062132	-0.94678473	0	0	0.38	3.0428701e-18
1.9100467449952953e-09	0.019655209	-0.07316333	-0.9421265	0	0	0.38	5.086026e-18
1.9200454378530632e-09	0.02380339	-0.07795956	-0.9405504	0	0	0.38	5.1996606e-18
1.9300046837926536e-09	0.017985133	-0.08495073	-0.9355249	0	0	0.38	5.1464522e-18
1.9400182604715622e-09	0.0112475455	-0.08136451	-0.9356025	0	0	0.38	3.2856997e-18
1.950047729275391e-09	-0.002837106	-0.0913182	-0.9292117	0	0	0.38	3.8351253e-18
1.9600335445204704e-09	-0.02102779	-0.081118256	-0.9313102	0	0	0.38	4.7816776e-18
1.9700128252301138e-09	-0.034252863	-0.076138414	-0.9270869	0	0	0.38	4.9111806e-18
1.9800362150439794e-09	-0.031154698	-0.077475935	-0.9224802	0	0	0.38	4.613102e-18
1.9900120485353027e-09	-0.048204158	-0.07391648	-0.9231812	0	0	0.38	4.6458227e-18
2.0000358387425615e-09	-0.033468872	-0.0784478	-0.93339336	0	0	0.38	5.681776e-18
2.0100427506324717e-09	-0.019614799	-0.080498286	-0.9406474	0	0	0.38	4.3618615e-18
2.0200446195649442e-09	-0.018259523	-0.09592552	-0.93475455	0	0	0.38	3.450577e-18
2.0300276382910445e-09	-0.0015707369	-0.11473106	-0.9374035	0	0	0.38	5.174484e-18
2.0400477557627824e-09	0.0029708617	-0.10486929	-0.9374023	0	0	0.38	5.063926e-18
2.050035104746082e-09	-0.024676314	-0.08956628	-0.93360174	0	0	0.38	4.0596246e-18
2.0600111035808357e-09	-0.03235124	-0.0801133	-0.9311282	0	0	0.38	4.0079457e-18
2.070027515505645e-09	-0.040025804	-0.06755519	-0.9333119	0	0	0.38	4.462197e-18
2.080049866763738e-09	-0.04515932	-0.059088055	-0.93152255	0	0	0.38	3.9453124e-18
2.0900636287336448e-09	-0.036987145	-0.07321911	-0.9286726	0	0	0.38	4.529191e-18
2.100056804480949e-09	-0.021520803	-0.071765825	-0.9250733	0	0	0.38	4.8535377e-18
2.1100147451460253e-09	-0.01377506	-0.06876581	-0.9277384	0	0	0.38	3.4624916e-18
2.1200445803734826e-09	-0.009308242	-0.07101984	-0.9351591	0	0	0.38	3.9833743e-18
2.1300384109316245e-09	-0.00813045	-0.070058696	-0.93683463	0	0	0.38	4.995614e-18
2.1400288848420296e-09	-0.023314776	-0.09276164	-0.9357918	0	0	0.38	4.2399533e-18
2.150043877666771e-09	-0.035762195	-0.09369832	-0.93273425	0	0	0.38	5.120429e-18
2.1600488287953336e-09	-0.041762892	-0.088419884	-0.9326621	0	0	0.38	5.330967e-18
2.1700246720239987e-09	-0.06153537	-0.07889733	-0.930928	0	0	0.38	4.2393424e-18
2.1800453230739814e-09	-0.0764425	-0.041675817	-0.9320146	0	0	0.38	5.254555e-18
2.1900480166465587e-09	-0.07106102	-0.018837642	-0.9294232	0	0	0.38	4.5810123e-18
2.200026573450637e-09	-0.051885337	-0.0047641764	-0.93202144	0	0	0.38	4.1922907e-18
2.2100009525086476e-09	-0.0497245	0.004103355	-0.9299536	0	0	0.38	5.313908e-18
2.22000468632047e-09	-0.0654996	0.01978868	-0.9321486	0	0	0.38	6.037555e-18
2.230036634436199e-09	-0.082272716	0.022182975	-0.9285376	0	0	0.38	4.13842e-18
2.2400519208609215e-09	-0.08251551	0.0228929	-0.92647773	0	0	0.38	4.2467937e-18
2.250016006132535e-09	-0.097348996	0.024409642	-0.92455995	0	0	0.38	5.1444893e-18
2.2600329477570868e-09	-0.1117916	0.012594637	-0.91976285	0	0	0.38	4.607623e-18
2.27005369497027e-09	-0.107154734	0.028159738	-0.92440474	0	0	0.38	3.8372383e-18
2.280056427207843e-09	-0.09592432	0.037653536	-0.92209786	0	0	0.38	4.3022636e-18
2.290055269373729e-09	-0.09481718	0.038058653	-0.9249854	0	0	0.38	4.1890982e-18
2.300004244905915e-09	-0.091303736	0.043364447	-0.92885256	0	0	0.38	4.7350465e-18
2.310011009507703e-09	-0.06506928	0.034836177	-0.92705935	0	0	0.38	4.582506e-18
2.3200383949003282e-09	-0.06680379	0.013845434	-0.93486935	0	0	0.38	4.5779277e-18
2.330015285195266e-09	-0.07654552	-0.0012053739	-0.9373339	0	0	0.38	4.3752474e-18
2.3400029372214177e-09	-0.0731151	0.0011277316	-0.94231987	0	0	0.38	4.6899763e-18
2.3500587429512744e-09	-0.070829816	-0.0020451194	-0.93918777	0	0	0.38	5.6242587e-18
2.360008796618476e-09	-0.06760389	0.0059030727	-0.9448429	0	0	0.38	4.64831e-18
2.370018705436149e-09	-0.07117905	-0.00015959305	-0.93883264	0	0	0.38	5.1338423e-18
2.380033398521393e-09	-0.058318432	-0.0012816387	-0.93870956	0	0	0.38	3.518447e-18
2.390010787522641e-09	-0.07488036	0.006614247	-0.9368542	0	0	0.38	4.5307486e-18
2.400058092922688e-09	-0.06963917	0.010209404	-0.936024	0	0	0.38	3.5987696e-18
2.410003106038943e-09	-0.06148062	-0.0122105125	-0.93146265	0	0	0.38	4.7832327e-18
2.420063896424832e-09	-0.07336461	-0.02886803	-0.93309647	0	0	0.38	4.5241304e-18
2.430011215470809e-09	-0.0745951	-0.036602147	-0.93343914	0	0	0.38	4.3986876e-18
2.4400186089877375e-09	-0.07518298	-0.048838396	-0.9325453	0	0	0.38	4.609303e-18
2.4500109181693698e-09	-0.105446376	-0.051620066	-0.93404955	0	0	0.38	5.1224938e-18
2.460045364442494e-09	-0.1138041	-0.041576166	-0.9332288	0	0	0.38	3.990232e-18
2.4700346746184355e-09	-0.11504388	-0.038823053	-0.9342379	0	0	0.38	4.8056112e-18
2.4800133948550146e-09	-0.09689011	-0.042189933	-0.9377888	0	0	0.38	2.8431581e-18
2.4900500136706586e-09	-0.101986185	-0.0348311	-0.9309027	0	0	0.38	4.7315037e-18
2.5000165962534314e-09	-0.10222273	-0.020250414	-0.9299103	0	0	0.38	5.158607e-18
2.510008849171494e-09	-0.117484614	-0.0072846506	-0.92284954	0	0	0.38	4.9102885e-18
2.5200524799317746e-09	-0.114064634	0.002495189	-0.9212116	0	0	0.38	3.525449e-18
2.530030171770438e-09	-0.11118486	-0.004988446	-0.91137576	0	0	0.38	5.276804e-18
2.540059023178414e-09	-0.121054105	0.015303689	-0.9112846	0	0	0.38	4.919834e-18
2.5500571268209162e-09	-0.1104995	0.026815128	-0.91288507	0	0	0.38	4.3872957e-18
2.5600057411188972e-09	-0.12500134	0.0476159	-0.91406417	0	0	0.38	4.4667083e-18
2.5700249101730006e-09	-0.13337138	0.057663593	-0.9139983	0	0	0.38	4.8636284e-18
2.5800466771807167e-09	-0.15828681	0.06463338	-0.9161575	0	0	0.38	3.540793e-18
2.590017327595081e-09	-0.14848186	0.06722416	-0.92289734	0	0	0.38	4.484249e-18
2.60004212633044e-09	-0.14477114	0.09055552	-0.92545354	0	0	0.38	4.830174e-18
2.6100103315389995e-09	-0.15646882	0.091035776	-0.9231973	0	0	0.38	5.082209e-18
2.6200267764330738e-09	-0.14831385	0.095376685	-0.923071	0	0	0.38	4.9363252e-18
2.630014975230077e-09	-0.1594069	0.10588534	-0.9193527	0	0	0.38	5.0109402e-18
2.640040795484035e-09	-0.13751115	0.10686316	-0.91661215	0	0	0.38	4.2791315e-18
2.6500431567304562e-09	-0.15232337	0.098760955	-0.9114357	0	0	0.38	4.63413e-18
2.660030901988389e-09	-0.14955291	0.12169409	-0.910779	0	0	0.38	4.6951582e-18
2.6700546553230683e-09	-0.1640371	0.13817559	-0.9060186	0	0	0.38	4.472612e-18
2.68002192159479e-09	-0.14611268	0.13940875	-0.9056535	0	0	0.38	5.9754704e-18
2.6900605360129696e-09	-0.14166181	0.1366062	-0.9091978	0	0	0.38	3.7125574e-18
2.7000609701728397e-09	-0.14943753	0.14370935	-0.9112888	0	0	0.38	5.4392684e-18
2.7100604886705917e-09	-0.14571775	0.16775317	-0.9112054	0	0	0.38	5.5345476e-18
2.720047049314297e-09	-0.15313259	0.14992222	-0.90855837	0	0	0.38	4.896164e-18
2.7300513443948212e-09	-0.15219104	0.15627241	-0.90870357	0	0	0.38	3.836816e-18
2.7400662038597617e-09	-0.14147045	0.13539006	-0.9102968	0	0	0.38	3.852482e-18
2.750038216309683e-09	-0.1646866	0.14741802	-0.90712196	0	0	0.38	3.513978e-18
2.7600468737795716e-09	-0.17162108	0.15039447	-0.91005373	0	0	0.38	3.9847954e-18
2.770004740464235e-09	-0.18630986	0.14673774	-0.9127778	0	0	0.38	4.2440003e-18
2.7800221560821275e-09	-0.19140595	0.14693132	-0.9124848	0	0	0.38	3.7798212e-18
2.790058792241051e-09	-0.19340602	0.18651015	-0.9017286	0	0	0.38	4.2858506e-18
2.800008116912441e-09	-0.18026227	0.18392994	-0.9054493	0	0	0.38	5.349229e-18
2.810058670485678e-09	-0.17281243	0.21121503	-0.8956652	0	0	0.38	5.1050825e-18
2.820054232664422e-09	-0.16944481	0.19125848	-0.8898374	0	0	0.38	4.497336e-18
2.8300016811914176e-09	-0.17523408	0.19869803	-0.88455105	0	0	0.38	5.286308e-18
2.840041918126853e-09	-0.1782168	0.17670973	-0.8868437	0	0	0.38	4.5633594e-18
2.850050656631379e-09	-0.16884291	0.15858366	-0.8886322	0	0	0.38	4.0554527e-18
2.8600421081414568e-09	-0.18001145	0.123648204	-0.8822611	0	0	0.38	4.788897e-18
2.8700047689242456e-09	-0.21831627	0.100953184	-0.87099195	0	0	0.38	4.9577053e-18
2.880061943278099e-09	-0.23727274	0.068480976	-0.8643974	0	0	0.38	3.798342e-18
2.890031704535604e-09	-0.22206269	0.043087672	-0.8646609	0	0	0.38	5.3981823e-18
2.9000247104816414e-09	-0.23165283	0.03789654	-0.8584986	0	0	0.38	4.3019596e-18
2.9100389928893264e-09	-0.22848009	-0.0040700235	-0.85838956	0	0	0.38	4.7392316e-18
2.920037445293489e-09	-0.2114986	-0.057057243	-0.8481941	0	0	0.38	4.042983e-18
2.9300324712741465e-09	-0.18583238	-0.12062115	-0.8304757	0	0	0.38	4.8226007e-18
2.9400587206049275e-09	-0.124980174	-0.17443849	-0.81898326	0	0	0.38	4.271191e-18
2.950013571080633e-09	-0.06522293	-0.22527696	-0.8084347	0	0	0.38	5.164925e-18
2.9600536367296405e-09	0.025630621	-0.24256176	-0.80526906	0	0	0.38	4.4946062e-18
2.970027332335056e-09	0.098874174	-0.26726863	-0.80568	0	0	0.38	4.150873e-18
2.98004244763158e-09	0.16316634	-0.260789	-0.8084687	0	0	0.38	3.8422936e-18
2.9900056119922978e-09	0.21535169	-0.20952241	-0.8030318	0	0	0.38	4.367887e-18
3.000040292860388e-09	0.25748217	-0.14844413	-0.80642235	0	0	0.38	4.340529e-18
3.0100182456717933e-09	0.2655052	-0.07232723	-0.792839	0	0	0.38	4.9674586e-18
3.020032089066003e-09	0.28128192	0.014066236	-0.7757634	0	0	0.38	4.9535248e-18
3.030013574439249e-09	0.24578299	0.084889494	-0.7537117	0	0	0.38	4.300677e-18
3.0400271381374523e-09	0.14998448	0.13481656	-0.71447426	0	0	0.38	4.812371e-18
3.0500084444440973e-09	0.024364663	0.14306845	-0.68042344	0	0	0.38	4.135584e-18
3.0600060229357257e-09	-0.119099244	0.115478955	-0.648105	0	0	0.38	4.257934e-18
3.070001071110679e-09	-0.19786692	0.0083921505	-0.6187679	0	0	0.38	4.823943e-18
3.0800389410127882e-09	-0.20864175	-0.110518895	-0.6172659	0	0	0.38	4.6489383e-18
3.090008846935514e-09	-0.18501104	-0.22761272	-0.60717374	0	0	0.38	4.3991624e-18
3.100050881615921e-09	-0.117444135	-0.34101206	-0.59289587	0	0	0.38	4.932647e-18
3.1100133933643864e-09	0.036492605	-0.42349887	-0.56028837	0	0	0.38	4.3871703e-18
3.1200592801260497e-09	0.2395604	-0.39165875	-0.54602563	0	0	0.38	5.068545e-18
3.1300462159217387e-09	0.41523924	-0.27632856	-0.528642	0	0	0.38	5.1642106e-18
3.1400392609216337e-09	0.51825976	-0.079528995	-0.50824994	0	0	0.38	4.6022832e-18
3.1500003984738383e-09	0.50611037	0.119659774	-0.4892433	0	0	0.38	4.457885e-18
3.1600075278674983e-09	0.43275693	0.31290928	-0.47483784	0	0	0.38	4.6420507e-18
3.1700206079653654e-09	0.22760817	0.46026596	-0.45672792	0	0	0.38	3.8545434e-18
3.180005089594829e-09	-0.050922666	0.47901532	-0.44904187	0	0	0.38	4.712715e-18
3.190032002855717e-09	-0.28141543	0.39395902	-0.4493791	0	0	0.38	4.391984e-18
3.200048485162123e-09	-0.38394126	0.24144977	-0.43195346	0	0	0.38	3.7031474e-18
3.2100118024447934e-09	-0.37166455	0.11399651	-0.4226786	0	0	0.38	3.9815305e-18
3.220061265165063e-09	-0.2950842	0.01720076	-0.41441268	0	0	0.38	4.2891867e-18
3.2300546504077796e-09	-0.16184585	-0.051847927	-0.3933952	0	0	0.38	4.3999193e-18
3.240045811301306e-09	0.031761725	-0.053093743	-0.36782748	0	0	0.38	3.3933486e-18
3.2500504027285492e-09	0.19218625	0.064375885	-0.34952044	0	0	0.38	3.9711274e-18
3.260047512335722e-09	0.18911816	0.21968755	-0.33276203	0	0	0.38	3.2092749e-18
3.2700252806142802e-09	0.11629966	0.32311907	-0.32609266	0	0	0.38	4.6036915e-18
3.280017739715364e-09	-0.015133712	0.44240642	-0.32075903	0	0	0.38	4.4347055e-18
3.2900062945761486e-09	-0.3105	0.45015973	-0.30307287	0	0	0.38	4.7623774e-18
3.30000633286174e-09	-0.56530637	0.20880105	-0.29833135	0	0	0.38	3.3909872e-18
3.3100319693077283e-09	-0.5672493	-0.109852634	-0.28761664	0	0	0.38	3.0596178e-18
3.3200324905693284e-09	-0.44247308	-0.33330354	-0.27446133	0	0	0.38	4.4018015e-18
3.3300034274550627e-09	-0.21913102	-0.4620248	-0.2562778	0	0	0.38	3.874827e-18
3.340014328432415e-09	0.09664218	-0.50682026	-0.24343985	0	0	0.38	4.776367e-18
3.3500387574703746e-09	0.414678	-0.37317768	-0.22508712	0	0	0.38	3.9439194e-18
3.360043160543815e-09	0.59677047	-0.13308592	-0.2082845	0	0	0.38	2.9931317e-18
3.370042841076694e-09	0.62289613	0.16956761	-0.19286722	0	0	0.38	4.6809704e-18
3.3800099840457636e-09	0.4785176	0.43663397	-0.17473255	0	0	0.38	3.8112636e-18
3.3900460280464804e-09	0.16458964	0.53621906	-0.17681897	0	0	0.38	3.0308065e-18
3.4000617262395323e-09	-0.13460913	0.40886316	-0.16808198	0	0	0.38	2.8874574e-18
3.410048132374184e-09	-0.24938081	0.21101356	-0.16537082	0	0	0.38	3.5606535e-18
3.4200355597206704e-09	-0.23687862	0.06969098	-0.15754093	0	0	0.38	3.7558814e-18
3.4300640538185735e-09	-0.14258607	-0.049565777	-0.15162453	0	0	0.38	2.2278222e-18
3.4400558362388055e-09	0.049855445	-0.09498327	-0.13641779	0	0	0.38	3.957219e-18
3.4500628573455264e-09	0.17947286	-0.03906561	-0.11708076	0	0	0.38	3.5761247e-18
3.460058955647771e-09	0.21815483	0.011211161	-0.08902156	0	0	0.38	3.7220476e-18
3.470042613792133e-09	0.20383714	0.076347634	-0.07650055	0	0	0.38	3.3042571e-18
3.4800357926674337e-09	0.14940774	0.14300762	-0.0732107	0	0	0.38	2.5508215e-18
3.490049565060388e-09	0.07612926	0.18305811	-0.054111443	0	0	0.38	2.8989593e-18
3.5000394762173035e-09	-0.066293634	0.25060502	-0.038268827	0	0	0.38	2.7795074e-18
3.5100609680543047e-09	-0.33148682	0.09989537	0.0015310936	0	0	0.38	3.1743865e-18
3.5200358573792643e-09	-0.36885756	-0.2609358	0.028224034	0	0	0.38	3.099208e-18
3.5300650791344626e-09	-0.087993994	-0.50075537	0.043444026	0	0	0.38	3.0559263e-18
3.540018833847319e-09	0.23297466	-0.47942182	0.06253758	0	0	0.38	2.1654813e-18
3.5500060304977883e-09	0.4947923	-0.24364644	0.088742636	0	0	0.38	2.016932e-18
3.5600209526617665e-09	0.50214374	0.15038413	0.10168607	0	0	0.38	1.8365374e-18
3.570050674500209e-09	0.18573418	0.43638855	0.1236691	0	0	0.38	2.0149363e-18
3.5800370869576848e-09	-0.24677284	0.3678664	0.14877757	0	0	0.38	2.58522e-18
3.59001186840008e-09	-0.39650255	0.09136574	0.16822211	0	0	0.38	2.3990463e-18
3.600052082704542e-09	-0.30358604	-0.09622995	0.18362784	0	0	0.38	2.6236494e-18
3.6100515907139208e-09	-0.19038473	-0.1299018	0.1984542	0	0	0.38	2.7468052e-18
3.620004326354312e-09	-0.06627078	-0.1373686	0.21160573	0	0	0.38	2.3215215e-18
3.630055181916951e-09	0.08411572	-0.093081884	0.22478347	0	0	0.38	1.5586088e-18
3.6400464756217637e-09	0.18125963	-0.006505877	0.2406376	0	0	0.38	2.1946396e-18
3.650045314508923e-09	0.24945135	0.11578431	0.2352089	0	0	0.38	1.280711e-18
3.6600431736936253e-09	0.15006498	0.30653918	0.24906874	0	0	0.38	2.3970112e-18
3.6700131548083968e-09	-0.07892744	0.36332217	0.2720211	0	0	0.38	1.707468e-18
3.6800129921467606e-09	-0.27737588	0.2786577	0.27736968	0	0	0.38	1.8840627e-18
3.6900291402118825e-09	-0.43845904	0.07314021	0.288716	0	0	0.38	2.1140166e-18
3.7000054886130215e-09	-0.47958848	-0.21623576	0.3066786	0	0	0.38	1.9548538e-18
3.7100546004742324e-09	-0.25948718	-0.4561023	0.3186579	0	0	0.38	2.0127616e-18