# t (s)	mx ()	my ()	mz ()	B_extx (T)	B_exty (T)	B_extz (T)	E_total (J)
0	0	0	-1	0	0	0.39	1.17474e-18
1.001665431295427e-11	-0.002335183	0.0064995605	-0.97287303	0	0	0.39	4.244243e-18
2.0009928106097563e-11	0.019708905	-0.0143514685	-0.9704994	0	0	0.39	4.1746263e-18
3.001303975313437e-11	0.01237082	-0.0019756705	-0.9690114	0	0	0.39	3.9554503e-18
4.0042008573416445e-11	0.014521708	-0.007979103	-0.96315897	0	0	0.39	4.513626e-18
5.002566971466436e-11	-0.00502644	0.0026011842	-0.9639477	0	0	0.39	4.6813356e-18
6.002438765511836e-11	0.00029668666	0.022739036	-0.9619321	0	0	0.39	4.5013825e-18
7.006148096617519e-11	0.009127549	0.03573456	-0.957102	0	0	0.39	4.2914577e-18
8.0040857837593e-11	0.03158092	0.038797814	-0.95842785	0	0	0.39	4.8073425e-18
9.00563047398927e-11	0.035557717	0.027365226	-0.95496815	0	0	0.39	5.358442e-18
1.0003488942916903e-10	0.043082375	0.029137433	-0.95603	0	0	0.39	4.300725e-18
1.1001653264737979e-10	0.041418936	0.025779916	-0.95643204	0	0	0.39	5.067267e-18
1.2003772215683277e-10	0.04271777	0.015474489	-0.95691985	0	0	0.39	3.673457e-18
1.3004536847151024e-10	0.033609886	0.0013114337	-0.9590431	0	0	0.39	4.4674197e-18
1.4004170823344055e-10	0.025179893	-0.009648264	-0.95607454	0	0	0.39	3.709395e-18
1.5004744750997367e-10	0.04238178	-0.005745411	-0.9549544	0	0	0.39	4.850774e-18
1.6004064077156616e-10	0.021719286	0.0040984764	-0.95102215	0	0	0.39	4.3410207e-18
1.700499670558173e-10	0.03093999	0.016164651	-0.95214707	0	0	0.39	4.997847e-18
1.8005428566728647e-10	0.03306589	0.012085132	-0.94912785	0	0	0.39	4.778779e-18
1.9004855329791467e-10	0.048078157	-0.002458617	-0.94777846	0	0	0.39	5.660161e-18
2.0005824863621845e-10	0.060769767	-0.017469533	-0.94948024	0	0	0.39	3.7946737e-18
2.100080860558221e-10	0.059548058	-0.044992585	-0.94215107	0	0	0.39	4.7258723e-18
2.2003113675600978e-10	0.038679585	-0.045969393	-0.9435425	0	0	0.39	3.4273867e-18
2.3004459103944665e-10	0.018459959	-0.036274437	-0.9449956	0	0	0.39	4.6158486e-18
2.4000469083591404e-10	0.011868571	-0.022184012	-0.94898033	0	0	0.39	4.7930906e-18
2.5003577585722856e-10	0.02397636	-0.017679859	-0.94496554	0	0	0.39	4.2133503e-18
2.6005240873224064e-10	0.03574535	-0.0035579146	-0.9464478	0	0	0.39	4.118061e-18
2.7003997409943396e-10	0.05422887	-0.012120503	-0.9425592	0	0	0.39	4.6734174e-18
2.8004754882154853e-10	0.071128614	-0.02284702	-0.9470511	0	0	0.39	3.4543947e-18
2.900220721486408e-10	0.048588198	-0.033696108	-0.94879663	0	0	0.39	4.6472976e-18
3.0005351776374247e-10	0.042762753	-0.05630616	-0.9494653	0	0	0.39	3.97623e-18
3.1003598621936e-10	0.022879897	-0.04141651	-0.9506813	0	0	0.39	5.4839548e-18
3.2001622265308375e-10	-0.0024499074	-0.03086761	-0.9495358	0	0	0.39	4.018667e-18
3.300314716307165e-10	-0.003993743	-0.019330561	-0.9509453	0	0	0.39	4.5889706e-18
3.4001412832651156e-10	0.0053316043	-0.011941914	-0.94847834	0	0	0.39	4.064672e-18
3.5001518963584136e-10	0.010588734	-0.013078343	-0.94545376	0	0	0.39	4.654151e-18
3.6002021249514143e-10	0.026123792	-0.013241481	-0.94958556	0	0	0.39	5.441003e-18
3.700494238185756e-10	0.03271347	-0.012602281	-0.94785327	0	0	0.39	3.654236e-18
3.80010693898192e-10	0.027610421	-0.03297307	-0.94843996	0	0	0.39	4.456926e-18
3.900098090956876e-10	-0.0029522986	-0.043453574	-0.94984215	0	0	0.39	3.787783e-18
4.0000426403753854e-10	-0.017609391	-0.04384725	-0.9490646	0	0	0.39	3.907323e-18
4.100067638709094e-10	-0.047878712	-0.018629355	-0.94728804	0	0	0.39	5.5075596e-18
4.200517958997524e-10	-0.07216575	-0.010076513	-0.9501561	0	0	0.39	4.0216152e-18
4.300612517514472e-10	-0.061849125	-0.006955675	-0.9502125	0	0	0.39	4.606297e-18
4.400470588976686e-10	-0.04800595	0.0027326017	-0.9504886	0	0	0.39	4.3344186e-18
4.5004461217513123e-10	-0.047183223	0.005060627	-0.94896215	0	0	0.39	5.217456e-18
4.6002933378042124e-10	-0.04698622	0.017010482	-0.9500561	0	0	0.39	5.324112e-18
4.700235084982689e-10	-0.038978	0.0019448778	-0.94901955	0	0	0.39	4.3874065e-18
4.800421981016549e-10	-0.059014387	-0.0036203803	-0.9541755	0	0	0.39	3.9298784e-18
4.900242833179777e-10	-0.07508701	0.0001197058	-0.9507829	0	0	0.39	5.5373766e-18
5.000264288349094e-10	-0.089148045	0.0055331737	-0.9479036	0	0	0.39	4.232048e-18
5.100630703669027e-10	-0.09554238	0.0051855585	-0.94447345	0	0	0.39	4.814734e-18
5.200006369093205e-10	-0.086106926	0.010619083	-0.9437464	0	0	0.39	5.616053e-18
5.300022820009943e-10	-0.06758745	0.022084793	-0.9407987	0	0	0.39	5.4005518e-18
5.400621603216198e-10	-0.051850047	0.036708485	-0.9409008	0	0	0.39	4.2328925e-18
5.50007793096344e-10	-0.020412873	0.032610536	-0.94479537	0	0	0.39	4.503981e-18
5.600492396978927e-10	-0.022813942	0.0152455	-0.94308007	0	0	0.39	4.9038327e-18
5.700146730708564e-10	-0.029142128	0.0017774557	-0.94251674	0	0	0.39	4.4700993e-18
5.800378906458368e-10	-0.045837924	0.030111913	-0.9424503	0	0	0.39	5.344921e-18
5.900259479793914e-10	-0.055971615	0.01765431	-0.94302666	0	0	0.39	4.850277e-18
6.000251569582194e-10	-0.07686136	0.027299995	-0.94029987	0	0	0.39	4.600827e-18
6.100017607365861e-10	-0.0752004	0.036968935	-0.94311273	0	0	0.39	4.799526e-18
6.200014206580097e-10	-0.058530986	0.039219886	-0.9453686	0	0	0.39	4.0216496e-18
6.300489695571912e-10	-0.07096905	0.026364299	-0.94529927	0	0	0.39	3.9704297e-18
6.400127653807205e-10	-0.045098234	0.02653408	-0.94751436	0	0	0.39	4.5911134e-18
6.500192886996148e-10	-0.03882331	0.023031991	-0.9492386	0	0	0.39	4.605247e-18
6.60057897301571e-10	-0.018843157	0.017113319	-0.94985557	0	0	0.39	4.770438e-18
6.700515244265198e-10	-0.019073714	0.0013363935	-0.94789547	0	0	0.39	5.197587e-18
6.800050370779764e-10	-0.025483916	0.0021509777	-0.949528	0	0	0.39	5.3566814e-18
6.900242224187115e-10	-0.05089349	0.019189812	-0.9479227	0	0	0.39	3.790005e-18
7.000143459861728e-10	-0.061592422	0.026441824	-0.9493023	0	0	0.39	4.5595345e-18
7.100628788797408e-10	-0.05618445	0.03938543	-0.94803727	0	0	0.39	4.850503e-18
7.200665124421267e-10	-0.0505489	0.059160966	-0.94495034	0	0	0.39	4.6280656e-18
7.300096221750451e-10	-0.04245061	0.069241896	-0.9432054	0	0	0.39	4.899556e-18
7.400525088976443e-10	-0.025517121	0.049562424	-0.944562	0	0	0.39	4.676261e-18
7.500046377561112e-10	-0.021327991	0.05422882	-0.951642	0	0	0.39	3.69532e-18
7.600579842056025e-10	-0.026814893	0.032583985	-0.9488655	0	0	0.39	4.7828493e-18
7.700223870408855e-10	-0.039168827	0.032610167	-0.9515462	0	0	0.39	4.3785093e-18
7.800532882751442e-10	-0.03758655	0.045360547	-0.954515	0	0	0.39	4.1560486e-18
7.900475738968871e-10	-0.035747387	0.060686216	-0.95466995	0	0	0.39	4.9788497e-18
8.00016384954706e-10	-0.033419125	0.09291483	-0.9567975	0	0	0.39	3.906194e-18
8.100588168224976e-10	-0.031648602	0.1126463	-0.9510847	0	0	0.39	3.4640998e-18
8.200560103061082e-10	-0.019862488	0.112403214	-0.9482542	0	0	0.39	4.8108907e-18
8.300654313728793e-10	-0.0032251165	0.10568262	-0.9496222	0	0	0.39	5.0486477e-18
8.400501377783641e-10	-0.0047452017	0.07874692	-0.9489292	0	0	0.39	5.086208e-18
8.500235033111009e-10	0.01484741	0.051511914	-0.94655085	0	0	0.39	4.710746e-18
8.600164684170841e-10	0.014196471	0.038679767	-0.9457446	0	0	0.39	4.1078186e-18
8.700057638041549e-10	-0.007408405	0.030894637	-0.9434108	0	0	0.39	4.412837e-18
8.800434554398976e-10	-0.010232431	0.036829483	-0.9444497	0	0	0.39	4.513678e-18
8.900343858371488e-10	-0.013336393	0.043937102	-0.9499605	0	0	0.39	3.9832725e-18
9.000585323342985e-10	-0.017212152	0.04974384	-0.94990563	0	0	0.39	4.6144225e-18
9.100463073815193e-10	0.0050912774	0.053289443	-0.9474577	0	0	0.39	4.2632574e-18
9.200111806934927e-10	0.003134657	0.057874955	-0.9464609	0	0	0.39	4.7257643e-18
9.300173963577601e-10	0.019454109	0.029198406	-0.9469304	0	0	0.39	3.8955107e-18
9.400267368941195e-10	0.01952926	0.022029769	-0.9478206	0	0	0.39	4.4656557e-18
9.500244909385668e-10	-0.005850375	0.015660513	-0.9493121	0	0	0.39	5.5754174e-18
9.600507260388063e-10	-0.019231634	0.004095822	-0.9489487	0	0	0.39	4.5293768e-18
9.700569570856088e-10	-0.043242037	0.009045577	-0.951931	0	0	0.39	4.0809253e-18
9.800512172281231e-10	-0.03534166	0.014302232	-0.952844	0	0	0.39	4.511463e-18
9.900256443998491e-10	-0.04359907	0.03708134	-0.9527334	0	0	0.39	4.412383e-18
1.0000074929359931e-09	-0.03323451	0.056510177	-0.9501587	0	0	0.39	4.9087776e-18
1.0100022197574986e-09	-0.02507559	0.07314874	-0.94660974	0	0	0.39	4.90206e-18
1.0200639718700939e-09	-9.282587e-05	0.07111237	-0.94672346	0	0	0.39	4.2762607e-18
1.0300496034062425e-09	0.017130349	0.07571998	-0.94747007	0	0	0.39	4.482798e-18
1.0400199441222199e-09	0.011143328	0.061361182	-0.9453546	0	0	0.39	4.134886e-18
1.050063132746002e-09	-0.0029977271	0.061011482	-0.9429928	0	0	0.39	4.0238916e-18
1.0600188560592563e-09	-0.020997064	0.06338994	-0.9426226	0	0	0.39	4.1194207e-18
1.0700209148633407e-09	-0.007593162	0.06387221	-0.9460273	0	0	0.39	3.9280603e-18
1.0800469993078824e-09	-0.0069003785	0.060561832	-0.95000553	0	0	0.39	4.6574007e-18
1.0900638733240753e-09	0.011695898	0.058967523	-0.951887	0	0	0.39	4.77633e-18
1.1000020501581662e-09	0.010236737	0.058031797	-0.95060796	0	0	0.39	4.048959e-18
1.1100227408024002e-09	0.002676271	0.051773947	-0.95079327	0	0	0.39	5.4460984e-18
1.1200041862593816e-09	-0.008074648	0.06136272	-0.9470786	0	0	0.39	4.7815605e-18
1.1300126736032046e-09	-0.019069256	0.07239873	-0.94598687	0	0	0.39	4.5754577e-18
1.1400097657197472e-09	-0.0029650957	0.07359546	-0.9467249	0	0	0.39	4.2191948e-18
1.150031414704227e-09	0.0037152802	0.07016691	-0.94740146	0	0	0.39	4.472558e-18
1.1600099145296917e-09	-0.0053909426	0.06897408	-0.9432047	0	0	0.39	4.5320895e-18
1.1700494637824759e-09	0.018431518	0.06711564	-0.94361657	0	0	0.39	4.867956e-18
1.1800092304680414e-09	0.02248394	0.071214125	-0.9429524	0	0	0.39	4.6702042e-18
1.1900171911110346e-09	0.02097694	0.07014378	-0.94545996	0	0	0.39	5.6019603e-18
1.2000234975083565e-09	0.012775132	0.060207974	-0.944219	0	0	0.39	4.1933656e-18
1.2100243557044014e-09	0.017236784	0.064427115	-0.9462775	0	0	0.39	5.2020715e-18
1.2200138633995535e-09	0.026335556	0.06544826	-0.942212	0	0	0.39	4.117524e-18
1.2300578181482658e-09	0.02942067	0.049125712	-0.94445544	0	0	0.39	4.6880246e-18
1.2400505356295162e-09	0.035942506	0.047844365	-0.94329894	0	0	0.39	5.060467e-18
1.25005174636075e-09	0.047159266	0.04998047	-0.9457585	0	0	0.39	3.8997054e-18
1.2600576234146717e-09	0.0700436	0.0442507	-0.94545996	0	0	0.39	4.0297626e-18
1.2700394812640104e-09	0.072461285	0.037007697	-0.9485631	0	0	0.39	3.9659985e-18
1.280051611088435e-09	0.08287413	0.029767292	-0.9391989	0	0	0.39	4.692536e-18
1.290056486723523e-09	0.071189344	0.042760693	-0.938792	0	0	0.39	5.0583004e-18
1.3000478883000855e-09	0.07185728	0.03269133	-0.9368429	0	0	0.39	5.711946e-18
1.3100198765054329e-09	0.06932253	0.028423257	-0.93934757	0	0	0.39	4.6676e-18
1.3200036776034277e-09	0.06090293	0.030146278	-0.93545425	0	0	0.39	5.334032e-18
1.3300177072262831e-09	0.07965904	0.04639818	-0.9321934	0	0	0.39	4.4005806e-18
1.3400646773505397e-09	0.08335395	0.052920956	-0.93558824	0	0	0.39	3.6604955e-18
1.3500266584135118e-09	0.08224001	0.048501067	-0.9349884	0	0	0.39	5.2569268e-18
1.3600537982313543e-09	0.082632385	0.03160587	-0.94047546	0	0	0.39	4.892866e-18
1.3700263976464813e-09	0.0889242	0.030547837	-0.9386977	0	0	0.39	5.950008e-18
1.3800480040168079e-09	0.06349801	0.036889747	-0.94325054	0	0	0.39	3.9196826e-18
1.390029086823267e-09	0.05859357	0.035088573	-0.94640076	0	0	0.39	4.633162e-18
1.400041278760209e-09	0.057312872	0.026064672	-0.9465356	0	0	0.39	3.9646262e-18
1.4100540244093903e-09	0.064944796	0.019887144	-0.95066947	0	0	0.39	4.7977625e-18
1.4200121915261776e-09	0.07358153	0.0013127069	-0.9515777	0	0	0.39	3.842102e-18
1.4300253260762842e-09	0.07569451	0.0044986145	-0.9546514	0	0	0.39	4.4669275e-18
1.4400225374097212e-09	0.07519448	0.00218431	-0.95410436	0	0	0.39	4.958535e-18
1.4500093428269472e-09	0.07077441	0.009842689	-0.95405024	0	0	0.39	4.8157177e-18
1.4600621336596904e-09	0.068938866	0.00894534	-0.9564117	0	0	0.39	4.884774e-18
1.4700323297989653e-09	0.072442465	-0.0009840227	-0.9553143	0	0	0.39	4.7435177e-18
1.480022267759057e-09	0.08112743	-0.011688195	-0.95536166	0	0	0.39	4.2992522e-18
1.4900323036903432e-09	0.09601147	-0.035039026	-0.95164627	0	0	0.39	5.186476e-18
1.5000564855603169e-09	0.096435875	-0.051268324	-0.95206934	0	0	0.39	4.517761e-18
1.510026212398301e-09	0.08328394	-0.056967713	-0.9519843	0	0	0.39	4.0114244e-18
1.5200563788761833e-09	0.07485753	-0.05808981	-0.9496502	0	0	0.39	4.9519577e-18
1.5300655279744659e-09	0.06859305	-0.060207188	-0.9506839	0	0	0.39	4.3851628e-18
1.540016927155978e-09	0.055379935	-0.0610462	-0.9518202	0	0	0.39	4.7856807e-18
1.5500526319124506e-09	0.06307838	-0.068453334	-0.95106316	0	0	0.39	5.138117e-18
1.5600250202976888e-09	0.063439324	-0.07075683	-0.9489349	0	0	0.39	4.422883e-18
1.570042205614347e-09	0.08123021	-0.096775986	-0.9490872	0	0	0.39	4.47206e-18
1.580024193949937e-09	0.072168946	-0.11782621	-0.94670135	0	0	0.39	4.237075e-18
1.5900246653221844e-09	0.058164272	-0.11252987	-0.95040894	0	0	0.39	4.6272397e-18
1.6000540773322183e-09	0.062244184	-0.099613465	-0.94871086	0	0	0.39	5.3283e-18
1.610050051296484e-09	0.062158357	-0.09448487	-0.94838065	0	0	0.39	4.7473823e-18
1.6200296356462836e-09	0.06413025	-0.112127416	-0.94133985	0	0	0.39	4.9107442e-18
1.630041869504223e-09	0.058579244	-0.10649589	-0.94249046	0	0	0.39	3.4729765e-18
1.640037326561852e-09	0.04802328	-0.10602116	-0.94451636	0	0	0.39	4.399321e-18
1.6500585146865698e-09	0.041725554	-0.09915258	-0.94404066	0	0	0.39	4.9925735e-18
1.6600616037235904e-09	0.04943111	-0.096751325	-0.9450622	0	0	0.39	5.239629e-18
1.670003809278327e-09	0.032896135	-0.09928592	-0.94482917	0	0	0.39	4.393473e-18
1.6800045325344106e-09	0.033128895	-0.08382167	-0.9461092	0	0	0.39	5.453787e-18
1.6900310730107565e-09	0.040402904	-0.11811304	-0.94515616	0	0	0.39	4.160021e-18
1.7000203932237612e-09	0.029486647	-0.11813678	-0.9437457	0	0	0.39	4.4158462e-18
1.7100037079430316e-09	0.027244985	-0.09781749	-0.9456881	0	0	0.39	3.8809073e-18
1.7200487147209556e-09	0.033095494	-0.093442485	-0.9491087	0	0	0.39	5.4213777e-18
1.730013576821429e-09	0.011358577	-0.093514815	-0.9483973	0	0	0.39	4.7202284e-18
1.740046393931639e-09	0.01766583	-0.083025604	-0.9495724	0	0	0.39	3.7772388e-18
1.7500040541279394e-09	0.01317462	-0.07657651	-0.94476885	0	0	0.39	4.755235e-18
1.7600053609552698e-09	0.017396536	-0.076790355	-0.944689	0	0	0.39	4.683381e-18
1.770021070168248e-09	0.00965159	-0.06738271	-0.946924	0	0	0.39	4.5547526e-18
1.7800589058799313e-09	0.016728323	-0.06988007	-0.94563866	0	0	0.39	4.547878e-18
1.7900186637904764e-09	0.008162971	-0.08031519	-0.9469178	0	0	0.39	4.4733047e-18
1.8000237904574502e-09	0.017500605	-0.07773271	-0.9456068	0	0	0.39	3.3474297e-18
1.8100116891483507e-09	0.021966878	-0.07131394	-0.9486571	0	0	0.39	4.6281975e-18
1.8200656346992599e-09	0.025029328	-0.075396016	-0.94884247	0	0	0.39	4.0035418e-18
1.8300184758774287e-09	0.030665893	-0.08576914	-0.95064354	0	0	0.39	4.6753654e-18
1.840043332786902e-09	0.02594729	-0.067811035	-0.9490213	0	0	0.39	5.5691825e-18
1.850031936043822e-09	0.023356885	-0.05329985	-0.9464669	0	0	0.39	4.806482e-18
1.8600333945466514e-09	0.031489257	-0.04205455	-0.94827306	0	0	0.39	4.8220804e-18
1.8700185471716892e-09	0.029624883	-0.06687115	-0.9524969	0	0	0.39	5.2809564e-18
1.8800289424807238e-09	0.028433386	-0.078322835	-0.9514238	0	0	0.39	3.727476e-18
1.8900214592465257e-09	0.02983194	-0.06588194	-0.951951	0	0	0.39	4.4087097e-18
1.900023203820836e-09	0.02554332	-0.054535743	-0.95210075	0	0	0.39	4.390428e-18
1.910024646667513e-09	0.033464678	-0.052219648	-0.9547522	0	0	0.39	4.61299e-18
1.9200185670409415e-09	0.030447286	-0.066369876	-0.9551993	0	0	0.39	4.9938416e-18
1.930016149505106e-09	0.03205739	-0.064060435	-0.9529333	0	0	0.39	4.5751864e-18
1.940006600287224e-09	0.033542976	-0.06386623	-0.952984	0	0	0.39	4.667096e-18
1.9500405122213845e-09	0.027627507	-0.051612224	-0.9534924	0	0	0.39	4.7067925e-18
1.9600002439127244e-09	0.013651464	-0.053785708	-0.9528559	0	0	0.39	5.423543e-18
1.970056712249076e-09	0.007436433	-0.05075716	-0.95533985	0	0	0.39	5.169466e-18
1.980025673526947e-09	-0.011539285	-0.048325375	-0.95426047	0	0	0.39	4.3868113e-18
1.9900214264871617e-09	-0.012506849	-0.044280592	-0.95722294	0	0	0.39	4.42194e-18
2.0000496707486364e-09	-0.019541053	-0.031110965	-0.95518875	0	0	0.39	4.0066714e-18
2.01001365587124e-09	-0.013206116	-0.010639478	-0.9550681	0	0	0.39	3.6967392e-18
2.0200194620149465e-09	-0.008723614	-0.004212337	-0.956894	0	0	0.39	4.15928e-18
2.0300047821773267e-09	-0.007166966	-0.01557521	-0.952932	0	0	0.39	5.328084e-18
2.040061358084119e-09	-0.0068994313	-0.012017206	-0.9533493	0	0	0.39	3.9364272e-18
2.0500345088602343e-09	0.000780233	-0.0007376201	-0.95270497	0	0	0.39	5.0988497e-18
2.060040454574881e-09	-0.014613198	-0.011053051	-0.9511632	0	0	0.39	4.7717886e-18
2.070005971159743e-09	-0.012534339	-0.014939898	-0.95215017	0	0	0.39	5.59556e-18
2.080054906750697e-09	-0.001980802	-0.012347117	-0.9530971	0	0	0.39	3.6573505e-18
2.0900213294606924e-09	-0.0022195366	-0.035602644	-0.9516466	0	0	0.39	4.346831e-18
2.100045936089453e-09	-0.011594312	-0.030481346	-0.9543992	0	0	0.39	4.576399e-18
2.1100220404266226e-09	-0.0068737017	-0.01157294	-0.95676035	0	0	0.39	5.058892e-18
2.120004426335314e-09	-0.012420592	-0.011814968	-0.95752406	0	0	0.39	4.6548782e-18
2.1300326842664345e-09	-0.023701536	-0.013692151	-0.957586	0	0	0.39	4.6996295e-18
2.1400481031985756e-09	-0.028435212	-0.014776503	-0.9588707	0	0	0.39	5.1019814e-18
2.150049037595101e-09	-0.038905527	-0.011444766	-0.95538783	0	0	0.39	4.2005993e-18
2.1600170394892757e-09	-0.023748532	0.014017605	-0.95391095	0	0	0.39	4.692075e-18
2.1700642534075606e-09	-0.01690038	0.0119119575	-0.95255977	0	0	0.39	5.0232495e-18
2.1800283102085704e-09	-0.052681457	0.003143132	-0.9560654	0	0	0.39	4.062957e-18
2.1900190933635254e-09	-0.04845813	0.0110627	-0.95595217	0	0	0.39	3.9013428e-18
2.20003508787533e-09	-0.038961038	5.565606e-05	-0.9550793	0	0	0.39	4.2293463e-18
2.21004721739371e-09	-0.051915064	-0.022497172	-0.9515165	0	0	0.39	4.4490604e-18
2.220010358113379e-09	-0.061987985	-0.023501763	-0.9504885	0	0	0.39	4.4593663e-18
2.2300405179073424e-09	-0.070801616	-0.016927546	-0.950274	0	0	0.39	4.818226e-18
2.240004379124315e-09	-0.07010178	-0.0069452743	-0.95292956	0	0	0.39	5.1274995e-18
2.2500035246721864e-09	-0.06590428	-0.004110523	-0.9527401	0	0	0.39	4.6193058e-18
2.2600253132449337e-09	-0.046534803	-0.006099224	-0.94881004	0	0	0.39	4.0039835e-18
2.2700165129942668e-09	-0.04730016	-0.009774211	-0.9437561	0	0	0.39	3.866115e-18
2.280053510895408e-09	-0.025550624	-0.013477379	-0.9442738	0	0	0.39	4.681669e-18
2.2900069476073436e-09	-0.030842373	-0.025405971	-0.9440575	0	0	0.39	4.365872e-18
2.3000608430372224e-09	-0.0046599545	-0.022748787	-0.9414572	0	0	0.39	5.3459686e-18
2.3100192056696676e-09	-0.00075535587	-0.020314854	-0.9419987	0	0	0.39	4.131148e-18
2.3200208225877112e-09	-0.007325541	-0.017016422	-0.9436826	0	0	0.39	4.2534438e-18
2.3300402993875766e-09	-0.025102915	-0.013361926	-0.9412113	0	0	0.39	4.476074e-18
2.3400220812697323e-09	-0.02770376	0.0059246784	-0.942249	0	0	0.39	4.1569734e-18
2.350039847359631e-09	-0.02820868	-0.012219324	-0.94208455	0	0	0.39	5.410578e-18
2.3600071281291274e-09	-0.040134363	-0.012818771	-0.9413885	0	0	0.39	4.5735974e-18
2.3700300220646275e-09	-0.040699743	-0.025424354	-0.94318	0	0	0.39	3.6060724e-18
2.3800355426481012e-09	-0.03861312	-0.027770998	-0.94663954	0	0	0.39	3.8089703e-18
2.3900565488980644e-09	-0.04350292	-0.036235925	-0.9468902	0	0	0.39	3.852838e-18
2.400044268935019e-09	-0.048913807	-0.044485483	-0.945499	0	0	0.39	4.300476e-18
2.410009697352591e-09	-0.059133176	-0.04892786	-0.94538367	0	0	0.39	4.0064088e-18
2.4200062710182324e-09	-0.058033094	-0.05398812	-0.9484473	0	0	0.39	4.388014e-18
2.4300596377114905e-09	-0.06921477	-0.037777133	-0.9505534	0	0	0.39	5.5539582e-18
2.4400224899462607e-09	-0.07515608	-0.033789676	-0.9471695	0	0	0.39	4.2225238e-18
2.4500021906366595e-09	-0.0684348	-0.043261323	-0.9449463	0	0	0.39	4.5682493e-18
2.4600279314377763e-09	-0.061843045	-0.03534007	-0.94581085	0	0	0.39	3.9719534e-18
2.4700479035747304e-09	-0.05824774	-0.023363264	-0.94458085	0	0	0.39	5.0409234e-18
2.4800481145349048e-09	-0.055440873	-0.04032149	-0.9414894	0	0	0.39	3.99042e-18
2.490006596591751e-09	-0.06602373	-0.06289742	-0.94348127	0	0	0.39	4.1257064e-18
2.500065220496353e-09	-0.077225134	-0.062173937	-0.94084233	0	0	0.39	4.9102206e-18
2.5100169508456005e-09	-0.08620081	-0.047892924	-0.9375977	0	0	0.39	5.350651e-18
2.5200201293225987e-09	-0.13021982	-0.047827166	-0.9301687	0	0	0.39	4.9368877e-18
2.5300050880318634e-09	-0.116637774	-0.029102871	-0.9334475	0	0	0.39	4.3783534e-18
2.5400201672956755e-09	-0.129715	-0.029970897	-0.92672664	0	0	0.39	4.0844115e-18
2.5500514080997413e-09	-0.120434515	-0.014862408	-0.925906	0	0	0.39	4.5966547e-18
2.560060589197615e-09	-0.11090105	-0.028306276	-0.93260604	0	0	0.39	4.7120646e-18
2.570007130495845e-09	-0.12895843	-0.012265375	-0.9344146	0	0	0.39	5.010442e-18
2.5800133160633726e-09	-0.12303238	-0.0024624402	-0.9353982	0	0	0.39	3.8736525e-18
2.5900050385776225e-09	-0.1296791	-0.0037619933	-0.93740404	0	0	0.39	4.486899e-18
2.6000323118211133e-09	-0.13608712	0.004540513	-0.94054544	0	0	0.39	4.0661403e-18
2.610033728645947e-09	-0.12950203	0.015186467	-0.9440515	0	0	0.39	3.8823693e-18
2.6200506207920008e-09	-0.12849675	0.035519376	-0.9431519	0	0	0.39	4.422258e-18
2.630022810563395e-09	-0.14226879	0.037870727	-0.93988955	0	0	0.39	3.931915e-18
2.6400647607337574e-09	-0.13047434	0.043343738	-0.9412323	0	0	0.39	4.255965e-18
2.6500381978891487e-09	-0.13181812	0.045152426	-0.93984246	0	0	0.39	3.8962953e-18
2.660024774883552e-09	-0.1403793	0.06175091	-0.9335137	0	0	0.39	4.829777e-18
2.6700558488516443e-09	-0.13394542	0.06583666	-0.9359626	0	0	0.39	5.6734387e-18
2.6800460880575663e-09	-0.116029784	0.040995885	-0.9407867	0	0	0.39	4.2981897e-18
2.690056913356584e-09	-0.14133495	0.032154594	-0.94097763	0	0	0.39	3.3247085e-18
2.700065791897999e-09	-0.124621026	0.043168303	-0.93955076	0	0	0.39	3.7609375e-18
2.71001938625035e-09	-0.1272707	0.052900545	-0.93472546	0	0	0.39	5.903478e-18
2.7200393571213284e-09	-0.14072743	0.046042122	-0.9353997	0	0	0.39	5.3748447e-18
2.7300278496946683e-09	-0.1386567	0.04759169	-0.93336	0	0	0.39	4.8000245e-18
2.7400524486009835e-09	-0.13512498	0.037646245	-0.9371501	0	0	0.39	4.6294747e-18
2.750027211157478e-09	-0.13373268	0.026725033	-0.9339764	0	0	0.39	4.647876e-18
2.7600547056809863e-09	-0.124660514	0.017979022	-0.9411241	0	0	0.39	3.996464e-18
2.7700076980394568e-09	-0.10372337	0.016029766	-0.9404083	0	0	0.39	4.573654e-18
2.78005224061404e-09	-0.10334696	0.022328379	-0.9430387	0	0	0.39	4.550357e-18
2.790018165823343e-09	-0.10795332	0.01852372	-0.9465465	0	0	0.39	3.3180551e-18
2.8000341395423914e-09	-0.10698093	0.026300007	-0.9477597	0	0	0.39	4.2404756e-18
2.8100007997642095e-09	-0.11418201	0.041751947	-0.94479764	0	0	0.39	4.9379854e-18
2.820049191551306e-09	-0.11204709	0.05263008	-0.9433844	0	0	0.39	4.7527383e-18
2.830060914234967e-09	-0.10837778	0.06876333	-0.9364929	0	0	0.39	4.0102204e-18
2.840003947959029e-09	-0.10222484	0.08050649	-0.93561774	0	0	0.39	4.44284e-18
2.850014788765032e-09	-0.08524385	0.09243049	-0.929201	0	0	0.39	4.747031e-18
2.8600391181101746e-09	-0.0693114	0.08263215	-0.9313822	0	0	0.39	5.457817e-18
2.8700094605584964e-09	-0.090621546	0.0877277	-0.9286111	0	0	0.39	5.004305e-18
2.880037083806286e-09	-0.09023372	0.08818699	-0.9295253	0	0	0.39	4.279818e-18
2.8900473317908186e-09	-0.08247994	0.09317589	-0.9349897	0	0	0.39	3.8354016e-18
2.9000180360256056e-09	-0.07322606	0.09806481	-0.93979603	0	0	0.39	4.700697e-18
2.910018439628248e-09	-0.06673217	0.11241859	-0.93814796	0	0	0.39	4.5645617e-18
2.9200388549108566e-09	-0.06568857	0.11234744	-0.94032884	0	0	0.39	4.871214e-18
2.930061031271843e-09	-0.063864015	0.11430733	-0.9448086	0	0	0.39	4.0609816e-18
2.9400126578534534e-09	-0.051269945	0.11295751	-0.94463676	0	0	0.39	4.7159506e-18
2.9500508143607517e-09	-0.045372076	0.11821765	-0.9446294	0	0	0.39	4.903999e-18
2.960039324603496e-09	-0.059151277	0.12149902	-0.9421583	0	0	0.39	3.3871011e-18
2.9700051255674627e-09	-0.05184257	0.119518384	-0.94146055	0	0	0.39	4.1503237e-18
2.980015304076354e-09	-0.045984164	0.14415985	-0.94043255	0	0	0.39	4.6885945e-18
2.9900442196036886e-09	-0.04947269	0.15211785	-0.93530476	0	0	0.39	4.6090384e-18
3.0000207236747338e-09	-0.048683226	0.14505415	-0.9368772	0	0	0.39	4.548433e-18
3.0100400524085375e-09	-0.04445323	0.1432631	-0.93809307	0	0	0.39	4.955498e-18
3.020029562154549e-09	-0.030162914	0.15557827	-0.9395789	0	0	0.39	3.847863e-18
3.030025994554663e-09	-0.024969326	0.14500213	-0.9376614	0	0	0.39	4.5434777e-18
3.0400541100221767e-09	-0.038193043	0.15323493	-0.93221414	0	0	0.39	4.216188e-18
3.0500424617237565e-09	-0.041086197	0.15866622	-0.93452114	0	0	0.39	4.0847105e-18
3.0600480678296583e-09	-0.04114491	0.16981338	-0.9299241	0	0	0.39	5.3097935e-18
3.070034255233982e-09	-0.040620297	0.1627965	-0.9324487	0	0	0.39	4.0798057e-18
3.0800590481925602e-09	-0.055142745	0.1683801	-0.932007	0	0	0.39	4.568573e-18
3.0900549845665394e-09	-0.053658087	0.19659863	-0.92804945	0	0	0.39	4.373027e-18
3.100001654062472e-09	-0.049782477	0.1893756	-0.9303586	0	0	0.39	3.887671e-18
3.1100006943957914e-09	-0.037932754	0.2099948	-0.9250034	0	0	0.39	4.674623e-18
3.1200121780965102e-09	-0.02125631	0.20943595	-0.9239867	0	0	0.39	4.4216257e-18
3.130037154140605e-09	-0.009657082	0.18657853	-0.92921853	0	0	0.39	4.7175475e-18
3.140034473046157e-09	-0.004630277	0.16658135	-0.93136996	0	0	0.39	4.3089306e-18
3.150022372711416e-09	0.00022088601	0.15537152	-0.9296794	0	0	0.39	4.427524e-18
3.1600560385901547e-09	0.008704306	0.14024027	-0.9278898	0	0	0.39	4.608016e-18
3.1700546279596035e-09	-0.0040425197	0.12221825	-0.9286576	0	0	0.39	4.215583e-18
3.180059183103514e-09	-0.024427168	0.119750656	-0.92761296	0	0	0.39	4.8756395e-18
3.1900154840857985e-09	-0.02180393	0.13454011	-0.925193	0	0	0.39	4.507073e-18
3.2000461205026504e-09	-0.010746808	0.13348654	-0.9243507	0	0	0.39	5.766246e-18
3.2100439037506013e-09	-0.002847984	0.12198286	-0.9252376	0	0	0.39	3.7083127e-18
3.2200300267109686e-09	0.014119359	0.10832645	-0.9265416	0	0	0.39	5.2705715e-18
3.2300348087061323e-09	0.005696744	0.111701675	-0.9338949	0	0	0.39	4.7696446e-18
3.240028852270441e-09	0.0076607894	0.10309384	-0.9393065	0	0	0.39	4.52702e-18
3.2500625619635246e-09	0.0025618516	0.07924825	-0.9407551	0	0	0.39	4.690448e-18
3.26003335212375e-09	-0.012981479	0.09241106	-0.9339628	0	0	0.39	5.2640943e-18
3.270059027774596e-09	-0.0072723674	0.11159966	-0.9402494	0	0	0.39	4.4502015e-18
3.280028088014645e-09	-0.008737078	0.122108266	-0.9348777	0	0	0.39	3.8203403e-18
3.2900386889492574e-09	0.020864531	0.12661566	-0.93157953	0	0	0.39	5.3616627e-18
3.3000069309680088e-09	0.044147424	0.1263776	-0.92951053	0	0	0.39	4.896255e-18
3.310066432835544e-09	0.059306823	0.12094786	-0.9253788	0	0	0.39	4.1009596e-18
3.320011792297737e-09	0.06471998	0.11381326	-0.92014605	0	0	0.39	4.2110975e-18
3.330047265433787e-09	0.07049091	0.1015024	-0.9257328	0	0	0.39	3.9206082e-18
3.34006320848023e-09	0.062453456	0.107681446	-0.9215888	0	0	0.39	4.982871e-18
3.350054984712195e-09	0.05792722	0.10349392	-0.92353857	0	0	0.39	5.0349045e-18
3.360042723494102e-09	0.051467303	0.131776	-0.9212017	0	0	0.39	3.7425415e-18
3.3700041153154776e-09	0.07124355	0.13716882	-0.92762864	0	0	0.39	4.157409e-18
3.3800392913271387e-09	0.083403885	0.1456095	-0.92869645	0	0	0.39	4.534528e-18
3.390053852365628e-09	0.08084136	0.12934479	-0.93139654	0	0	0.39	4.135815e-18
3.400039693284626e-09	0.06678125	0.1308025	-0.9324641	0	0	0.39	5.18921e-18
3.410051928499975e-09	0.073321775	0.12997863	-0.93611366	0	0	0.39	4.9997303e-18
3.4200080893312894e-09	0.08007712	0.12875208	-0.9355903	0	0	0.39	4.6375525e-18
3.430001814305067e-09	0.0843311	0.12769744	-0.934262	0	0	0.39	4.308277e-18
3.440047089406281e-09	0.09216089	0.12625936	-0.9326932	0	0	0.39	4.7777584e-18
3.450057276299353e-09	0.10081108	0.117594376	-0.9292864	0	0	0.39	4.2053742e-18
3.4600103821830127e-09	0.090560235	0.10942243	-0.92755216	0	0	0.39	4.8031454e-18
3.470031566454089e-09	0.100185975	0.12031896	-0.9241388	0	0	0.39	5.0072485e-18
3.4800454178372123e-09	0.10810233	0.12316158	-0.91922015	0	0	0.39	4.3575817e-18
3.4900443722709076e-09	0.12172416	0.14219329	-0.9181388	0	0	0.39	4.278783e-18
3.500011301053487e-09	0.1261756	0.1306607	-0.9169982	0	0	0.39	5.32083e-18
3.5100215318289384e-09	0.13115385	0.13476992	-0.9153288	0	0	0.39	3.8517376e-18
3.5200030927281605e-09	0.13216978	0.13196103	-0.91617507	0	0	0.39	4.7466705e-18
3.5300097052700117e-09	0.12139226	0.12012762	-0.91712195	0	0	0.39	4.6227518e-18
3.540037851639968e-09	0.107785314	0.121275015	-0.91550034	0	0	0.39	5.183458e-18
3.5500616128282145e-09	0.08339659	0.12982172	-0.9206492	0	0	0.39	4.78253e-18
3.5600074342589664e-09	0.09506844	0.12890464	-0.92096937	0	0	0.39	5.2498143e-18
3.570004952699376e-09	0.10515604	0.14090914	-0.922663	0	0	0.39	4.680797e-18
3.5800661923074875e-09	0.11893036	0.14879239	-0.92511004	0	0	0.39	4.4903454e-18
3.590008874265649e-09	0.15369324	0.12483563	-0.92022216	0	0	0.39	4.3051566e-18
3.600023483576055e-09	0.17766328	0.12530501	-0.9101292	0	0	0.39	4.4296076e-18
3.6100454112725566e-09	0.17572157	0.12684935	-0.9011178	0	0	0.39	3.750469e-18
3.62006111561234e-09	0.14844796	0.11479482	-0.90330774	0	0	0.39	4.1762385e-18
3.630051019547453e-09	0.13851891	0.116351895	-0.89972883	0	0	0.39	4.1530398e-18
3.6400452406612725e-09	0.12756313	0.1252559	-0.9015587	0	0	0.39	5.0559483e-18
3.6500084106611068e-09	0.1094854	0.14261468	-0.9078871	0	0	0.39	4.8339165e-18
3.660027983797827e-09	0.118151434	0.16480687	-0.90436304	0	0	0.39	3.6582414e-18
3.6700370645091195e-09	0.11289534	0.17837872	-0.90362406	0	0	0.39	4.712734e-18
3.680012639640986e-09	0.10130232	0.18151885	-0.9063934	0	0	0.39	4.610328e-18
3.690029261872346e-09	0.093496285	0.18130314	-0.9088106	0	0	0.39	4.402034e-18
3.7000352517588773e-09	0.08463664	0.19352485	-0.90884984	0	0	0.39	4.9426304e-18
3.7100382479785323e-09	0.08031117	0.19472662	-0.906189	0	0	0.39	4.471422e-18