# t (s)	mx ()	my ()	mz ()	B_extx (T)	B_exty (T)	B_extz (T)	E_total (J)
0	0	0	-1	0	0	0.4	1.2498702e-18
1.0021551301877222e-11	0.0033363292	0.00934115	-0.9750199	0	0	0.4	4.491767e-18
2.0036920075134187e-11	0.014948347	0.019539934	-0.9692683	0	0	0.4	5.0783207e-18
3.003699766411778e-11	0.01915474	0.03828909	-0.9683531	0	0	0.4	4.8724925e-18
4.0053118957699235e-11	0.016699096	0.04007555	-0.9673886	0	0	0.4	4.6556814e-18
5.0000355758578996e-11	0.018613787	0.04656804	-0.9642582	0	0	0.4	5.671889e-18
6.001172909971393e-11	0.017846785	0.04560164	-0.96194094	0	0	0.4	4.5028743e-18
7.005929511550732e-11	-0.0027636648	0.027218739	-0.9612878	0	0	0.4	4.427495e-18
8.004535876615639e-11	-0.006295332	0.02457534	-0.959418	0	0	0.4	4.0122317e-18
9.002790784113551e-11	-0.0035955685	0.033941865	-0.96081346	0	0	0.4	4.2866493e-18
1.0004124897167776e-10	0.0053112805	0.034788646	-0.96173114	0	0	0.4	5.223697e-18
1.1000176107169292e-10	0.0049988576	0.03545883	-0.9585884	0	0	0.4	5.5796562e-18
1.2001306709552535e-10	0.019916259	0.026452422	-0.96076006	0	0	0.4	4.525204e-18
1.300463700208935e-10	0.012702552	0.02529757	-0.96010125	0	0	0.4	4.6185257e-18
1.400274420282673e-10	0.01933443	0.027249834	-0.9592247	0	0	0.4	4.0954668e-18
1.5006074919850265e-10	0.016174307	0.022435673	-0.9558164	0	0	0.4	4.3375225e-18
1.6001950606197143e-10	-0.007025084	0.023041682	-0.95447904	0	0	0.4	4.8118796e-18
1.70000226694353e-10	-0.013639359	0.028803293	-0.95677966	0	0	0.4	4.9020104e-18
1.8006428124774334e-10	-0.0058164657	0.034785803	-0.95945513	0	0	0.4	5.0720945e-18
1.9003224641579948e-10	0.013325987	0.030567808	-0.95891726	0	0	0.4	4.9163695e-18
2.0005341589115312e-10	0.02841367	0.021471512	-0.9615907	0	0	0.4	4.17797e-18
2.1003323780342005e-10	0.023820268	0.018800914	-0.96187603	0	0	0.4	4.3703153e-18
2.2000110481983417e-10	0.019209333	0.023004007	-0.96130085	0	0	0.4	4.682809e-18
2.3005437000311757e-10	0.019915627	0.016348021	-0.9595951	0	0	0.4	5.2277897e-18
2.4005656502588703e-10	0.021224374	0.0047398554	-0.957911	0	0	0.4	4.422379e-18
2.5006529180746916e-10	0.02564004	0.0014631243	-0.9537296	0	0	0.4	5.0564335e-18
2.600401509926921e-10	0.027751978	-0.004193169	-0.9579605	0	0	0.4	5.392198e-18
2.7005629763098177e-10	0.04064855	-0.011072855	-0.9506762	0	0	0.4	5.1489086e-18
2.800465246137248e-10	0.057299986	-0.001248005	-0.95080715	0	0	0.4	4.8801497e-18
2.9003472202525486e-10	0.057796527	0.0034818978	-0.95084536	0	0	0.4	4.3999974e-18
3.000347857334867e-10	0.04913857	-0.018645998	-0.95475024	0	0	0.4	4.775622e-18
3.1006318705145645e-10	0.05905768	-0.019618852	-0.957495	0	0	0.4	4.896564e-18
3.2000972607676864e-10	0.057993762	-0.032146666	-0.9524882	0	0	0.4	4.1710355e-18
3.3005837725336023e-10	0.054127492	-0.04388554	-0.95300585	0	0	0.4	4.899435e-18
3.400568492829427e-10	0.048858512	-0.050270513	-0.952339	0	0	0.4	4.7795724e-18
3.5003002715703835e-10	0.048892956	-0.036836922	-0.95293295	0	0	0.4	4.5544184e-18
3.6002436165393233e-10	0.045175064	-0.038756933	-0.9559926	0	0	0.4	3.7618326e-18
3.7006222575058503e-10	0.03355947	-0.050991807	-0.95726395	0	0	0.4	4.4684396e-18
3.800523527357658e-10	0.031435996	-0.051370855	-0.95678097	0	0	0.4	4.571071e-18
3.9000813950724956e-10	0.022374956	-0.08110664	-0.95000106	0	0	0.4	4.768664e-18
4.0001634165620673e-10	0.025365775	-0.08115671	-0.9462312	0	0	0.4	4.8372414e-18
4.1004313786315476e-10	0.015256498	-0.09164311	-0.9457423	0	0	0.4	5.4872076e-18
4.2000452322986864e-10	0.012539828	-0.08695925	-0.94808304	0	0	0.4	4.7491165e-18
4.300455811570685e-10	-0.0061038975	-0.0942833	-0.94626087	0	0	0.4	4.938213e-18
4.4002138915455486e-10	0.0059129638	-0.08011684	-0.9481589	0	0	0.4	4.9260777e-18
4.500250185373984e-10	0.0047072	-0.08225224	-0.9444519	0	0	0.4	3.9068427e-18
4.6002721183548125e-10	-0.0020970735	-0.084340535	-0.9495971	0	0	0.4	4.9484314e-18
4.700154728992786e-10	-0.008010841	-0.09911212	-0.948425	0	0	0.4	4.2923994e-18
4.800125806594443e-10	-0.013936179	-0.08682672	-0.9443943	0	0	0.4	4.7017405e-18
4.900190325645835e-10	-0.012600695	-0.08199529	-0.94634604	0	0	0.4	4.1753803e-18
5.000020525035812e-10	-0.025448428	-0.084649354	-0.944707	0	0	0.4	4.956385e-18
5.100099654219185e-10	-0.019670183	-0.080624536	-0.94450146	0	0	0.4	4.612036e-18
5.200662650159716e-10	-0.004473019	-0.0786362	-0.9383717	0	0	0.4	5.6549185e-18
5.300285198096079e-10	0.0018254736	-0.099108614	-0.9407751	0	0	0.4	4.4895774e-18
5.400161713292583e-10	0.0070504206	-0.09404523	-0.9413758	0	0	0.4	5.965655e-18
5.500008343807131e-10	0.005777463	-0.090917334	-0.9424066	0	0	0.4	4.7418613e-18
5.600399697475023e-10	0.012478373	-0.10452394	-0.9413807	0	0	0.4	4.760168e-18
5.700116789022587e-10	0.011742058	-0.11160984	-0.93900996	0	0	0.4	4.700186e-18
5.800012706209108e-10	0.021687804	-0.09056254	-0.94097507	0	0	0.4	4.8993614e-18
5.900112444233856e-10	0.026847107	-0.08547557	-0.9357784	0	0	0.4	4.3668196e-18
6.000431047427249e-10	0.033467803	-0.078205496	-0.93630904	0	0	0.4	4.6311564e-18
6.100588528744224e-10	0.033200298	-0.0725397	-0.934788	0	0	0.4	4.5799067e-18
6.200599944838198e-10	0.045270395	-0.088623	-0.9318565	0	0	0.4	5.1594473e-18
6.300042508958641e-10	0.023025107	-0.073182374	-0.9344246	0	0	0.4	4.7486536e-18
6.400642894105326e-10	0.017159203	-0.08679121	-0.93924415	0	0	0.4	4.5571254e-18
6.500302222652412e-10	0.023162926	-0.07987624	-0.9419216	0	0	0.4	4.7940497e-18
6.600283326798687e-10	0.021550855	-0.08587558	-0.9432057	0	0	0.4	5.437141e-18
6.700463731800089e-10	0.016425438	-0.0737386	-0.94111925	0	0	0.4	4.6119534e-18
6.800488589560304e-10	0.017262803	-0.060637884	-0.94328886	0	0	0.4	4.622176e-18
6.900520674130216e-10	0.027306259	-0.042585187	-0.9431472	0	0	0.4	5.135192e-18
7.0005817199284e-10	0.03638064	-0.042243514	-0.94520944	0	0	0.4	4.171283e-18
7.100183760983284e-10	0.052318685	-0.06652665	-0.93939614	0	0	0.4	4.0147124e-18
7.200413300205434e-10	0.036682587	-0.053046044	-0.9417047	0	0	0.4	4.094423e-18
7.300582356636751e-10	0.047794454	-0.053387053	-0.94040984	0	0	0.4	4.6987387e-18
7.400456858409555e-10	0.05542419	-0.05183018	-0.9403016	0	0	0.4	4.5282625e-18
7.500449958640043e-10	0.059998065	-0.059491098	-0.94223475	0	0	0.4	4.7646116e-18
7.600537127080645e-10	0.063820586	-0.064621285	-0.93966234	0	0	0.4	4.4659597e-18
7.700473844259498e-10	0.06948726	-0.06690424	-0.9408982	0	0	0.4	4.426266e-18
7.800269128581802e-10	0.045953818	-0.087618224	-0.94184506	0	0	0.4	4.584361e-18
7.900345215691159e-10	0.048448592	-0.07902689	-0.9385179	0	0	0.4	4.5917602e-18
8.000257906814553e-10	0.059769902	-0.08868179	-0.9294024	0	0	0.4	4.079342e-18
8.100235504871259e-10	0.06473108	-0.08450417	-0.93140775	0	0	0.4	4.7889522e-18
8.200605908367953e-10	0.085581765	-0.091504216	-0.9279142	0	0	0.4	3.646857e-18
8.30007247702544e-10	0.09549526	-0.10812004	-0.92333776	0	0	0.4	4.37878e-18
8.400287888265361e-10	0.1189659	-0.10756309	-0.9203909	0	0	0.4	4.679226e-18
8.50053140516968e-10	0.11007592	-0.11082639	-0.9224912	0	0	0.4	4.747792e-18
8.600295303076275e-10	0.099037826	-0.09139626	-0.9235458	0	0	0.4	4.319762e-18
8.700468773525647e-10	0.11058041	-0.09372736	-0.92470384	0	0	0.4	4.1069224e-18
8.800231887487242e-10	0.097077526	-0.10354215	-0.92634046	0	0	0.4	4.4703595e-18
8.900005762729948e-10	0.103514016	-0.09501336	-0.932904	0	0	0.4	4.2523507e-18
9.000674016172861e-10	0.10194422	-0.118417956	-0.9323564	0	0	0.4	5.4005952e-18
9.100164231527615e-10	0.07756914	-0.110963136	-0.93269503	0	0	0.4	5.404696e-18
9.200477596443374e-10	0.06507274	-0.123232104	-0.9376941	0	0	0.4	4.4553664e-18
9.300430427058447e-10	0.04806095	-0.12321657	-0.9381111	0	0	0.4	5.77121e-18
9.400497995678943e-10	0.06682921	-0.11547784	-0.9389145	0	0	0.4	4.574115e-18
9.50012322225054e-10	0.061470572	-0.10719038	-0.9400012	0	0	0.4	4.8070563e-18
9.600035109236387e-10	0.0731923	-0.09368507	-0.9419267	0	0	0.4	4.799279e-18
9.70025819218345e-10	0.076106876	-0.09377389	-0.9395859	0	0	0.4	4.791058e-18
9.800164120302245e-10	0.08793975	-0.10261362	-0.9393727	0	0	0.4	3.8623156e-18
9.900312261838786e-10	0.09243079	-0.10827571	-0.9412686	0	0	0.4	4.547458e-18
1.000022696684412e-09	0.08642284	-0.11836791	-0.9443125	0	0	0.4	3.7711094e-18
1.0100542245998453e-09	0.07044045	-0.13223164	-0.9386639	0	0	0.4	4.689961e-18
1.02000073528177e-09	0.06826486	-0.14512862	-0.94216484	0	0	0.4	3.3534866e-18
1.0300130814707266e-09	0.048385836	-0.14234996	-0.9430625	0	0	0.4	4.879835e-18
1.0400004854228534e-09	0.044174656	-0.14479542	-0.94130486	0	0	0.4	4.236847e-18
1.0500168377472344e-09	0.03426746	-0.1430169	-0.93836635	0	0	0.4	4.8545704e-18
1.0600294974200782e-09	0.043198556	-0.1480871	-0.9373181	0	0	0.4	3.982184e-18
1.070062744778087e-09	0.055425722	-0.14746433	-0.94247437	0	0	0.4	5.0713538e-18
1.0800570277652126e-09	0.045458697	-0.15631665	-0.940175	0	0	0.4	5.28855e-18
1.0900013100242862e-09	0.05638276	-0.15457073	-0.9421269	0	0	0.4	5.1055387e-18
1.1000604095965228e-09	0.03931159	-0.16282497	-0.93952566	0	0	0.4	4.86846e-18
1.1100407044758313e-09	0.035538636	-0.1491254	-0.9405625	0	0	0.4	5.2233714e-18
1.120019052770019e-09	0.03100683	-0.14552051	-0.94218737	0	0	0.4	4.471008e-18
1.130009053369432e-09	0.029206626	-0.13233249	-0.9432276	0	0	0.4	4.394018e-18
1.1400312320468042e-09	0.032889552	-0.13180298	-0.9407182	0	0	0.4	5.9213013e-18
1.1500384781420805e-09	0.043630227	-0.14013653	-0.93762153	0	0	0.4	4.6672723e-18
1.1600086711654165e-09	0.025801046	-0.14643764	-0.94054973	0	0	0.4	4.476897e-18
1.1700227760798422e-09	0.018248398	-0.15522762	-0.9384262	0	0	0.4	4.87349e-18
1.1800480144462061e-09	0.003324592	-0.15747836	-0.936222	0	0	0.4	4.15399e-18
1.1900458268334555e-09	-0.012675361	-0.17317712	-0.9302609	0	0	0.4	4.1452316e-18
1.200066336739346e-09	-0.020788977	-0.1602467	-0.9324655	0	0	0.4	4.9442488e-18
1.2100281054093383e-09	-0.022569807	-0.15635438	-0.9340564	0	0	0.4	4.4305076e-18
1.2200631612586525e-09	-0.013714722	-0.16024949	-0.9358181	0	0	0.4	4.7019804e-18
1.2300358169134347e-09	-0.023232521	-0.16555633	-0.93105793	0	0	0.4	4.7323214e-18
1.2400197255853113e-09	-0.03190273	-0.17525646	-0.92966586	0	0	0.4	4.5157035e-18
1.2500316494005788e-09	-0.036978036	-0.16849758	-0.9282351	0	0	0.4	5.3349444e-18
1.2600499387701631e-09	-0.026747212	-0.1739288	-0.93036264	0	0	0.4	4.680749e-18
1.2700039054118062e-09	-0.024984118	-0.18605797	-0.92734426	0	0	0.4	5.6534528e-18
1.280056036522496e-09	-0.02747764	-0.18561287	-0.92992646	0	0	0.4	4.7330543e-18
1.290003983131716e-09	-0.042585686	-0.18111894	-0.93150926	0	0	0.4	5.079913e-18
1.3000077789075508e-09	-0.04268094	-0.18636702	-0.9309768	0	0	0.4	4.5855e-18
1.3100515589034194e-09	-0.056654897	-0.15860462	-0.9376143	0	0	0.4	4.756425e-18
1.3200362138987316e-09	-0.06935699	-0.12517476	-0.9461748	0	0	0.4	4.6680958e-18
1.3300515523249841e-09	-0.074025124	-0.104921535	-0.9478093	0	0	0.4	4.3242914e-18
1.3400027694964992e-09	-0.07720767	-0.090747796	-0.94580805	0	0	0.4	4.3869437e-18
1.3500422642093128e-09	-0.093288735	-0.08552734	-0.9451214	0	0	0.4	5.7000685e-18
1.3600647500407684e-09	-0.09409607	-0.099284634	-0.9443233	0	0	0.4	4.97742e-18
1.3700235474130672e-09	-0.09603886	-0.104722045	-0.94660425	0	0	0.4	3.8646437e-18
1.3800595522531107e-09	-0.093234286	-0.102016054	-0.94480044	0	0	0.4	4.680911e-18
1.3900252898032205e-09	-0.10248299	-0.1033789	-0.94252974	0	0	0.4	4.049921e-18
1.400034134731165e-09	-0.10211062	-0.098532274	-0.9409408	0	0	0.4	4.375587e-18
1.410034176728677e-09	-0.10896416	-0.08779752	-0.9427924	0	0	0.4	4.9399967e-18
1.420024319121361e-09	-0.11958285	-0.06683232	-0.9448081	0	0	0.4	5.3159668e-18
1.4300570752023106e-09	-0.12739514	-0.06658534	-0.94429535	0	0	0.4	3.520136e-18
1.4400479084916568e-09	-0.12756218	-0.045204397	-0.94021386	0	0	0.4	5.277831e-18
1.4500500284863464e-09	-0.114745565	-0.028196495	-0.9409531	0	0	0.4	4.7781757e-18
1.460011881668608e-09	-0.12373814	-0.0069325133	-0.9373832	0	0	0.4	4.22446e-18
1.4700465955508937e-09	-0.12977585	-0.0076559777	-0.93316483	0	0	0.4	5.0842172e-18
1.4800473737734583e-09	-0.11527557	-0.010837803	-0.939435	0	0	0.4	4.546395e-18
1.4900527459716419e-09	-0.1266156	-0.0078041432	-0.9358385	0	0	0.4	4.555326e-18
1.5000118102833735e-09	-0.13234974	0.003607434	-0.9307814	0	0	0.4	4.8801534e-18
1.5100202325994491e-09	-0.11892746	-0.002591664	-0.9339818	0	0	0.4	4.891929e-18
1.5200219456815176e-09	-0.12418388	0.009336504	-0.9335111	0	0	0.4	4.62849e-18
1.5300477272090322e-09	-0.12912457	0.0021180536	-0.9321617	0	0	0.4	4.6208067e-18
1.5400599757881112e-09	-0.12913144	-0.006640223	-0.93433654	0	0	0.4	5.0539106e-18
1.5500077415544655e-09	-0.13474153	0.0046583535	-0.92927974	0	0	0.4	4.495633e-18
1.5600335313850232e-09	-0.13833807	0.025661679	-0.9309222	0	0	0.4	4.190334e-18
1.5700405497112518e-09	-0.14460807	0.043647602	-0.92633486	0	0	0.4	2.3974438e-18
1.5800561307678605e-09	-0.1331418	0.032082107	-0.9252257	0	0	0.4	4.980281e-18
1.590029325448726e-09	-0.13238609	0.061540388	-0.9215712	0	0	0.4	3.817065e-18
1.6000380985620104e-09	-0.12925464	0.059710864	-0.9257273	0	0	0.4	4.7679054e-18
1.610027190014394e-09	-0.1261604	0.05641498	-0.92977136	0	0	0.4	4.262903e-18
1.620018889775278e-09	-0.12499196	0.02946203	-0.93531775	0	0	0.4	4.565676e-18
1.6300337341775651e-09	-0.12186776	0.013359339	-0.9322049	0	0	0.4	5.3292306e-18
1.640008280121912e-09	-0.12804294	0.023993043	-0.934762	0	0	0.4	4.6144457e-18
1.6500494824904182e-09	-0.14416327	0.027076153	-0.9285455	0	0	0.4	4.755288e-18
1.660000907818726e-09	-0.14847717	0.032185104	-0.92511165	0	0	0.4	4.0263554e-18
1.670031676219677e-09	-0.13232966	0.05739878	-0.929855	0	0	0.4	5.6374472e-18
1.6800149166007417e-09	-0.12803116	0.052397262	-0.92270905	0	0	0.4	4.3402353e-18
1.6900211775255976e-09	-0.118409455	0.050825108	-0.9152791	0	0	0.4	5.6285956e-18
1.700009608909757e-09	-0.112800375	0.037285473	-0.91547126	0	0	0.4	6.204927e-18
1.7100599898144313e-09	-0.11645567	0.013705838	-0.9100632	0	0	0.4	4.1731535e-18
1.7200073393291293e-09	-0.13301332	0.002228919	-0.9145723	0	0	0.4	4.5980414e-18
1.7300412763280448e-09	-0.13894136	0.024147635	-0.91568387	0	0	0.4	3.7351068e-18
1.740039513347309e-09	-0.1615003	0.044388376	-0.91096413	0	0	0.4	5.3389347e-18
1.7500628748765883e-09	-0.185902	0.04079813	-0.90665483	0	0	0.4	5.201761e-18
1.7600290899601742e-09	-0.1731414	0.031518698	-0.9089781	0	0	0.4	4.4883544e-18
1.7700021431028098e-09	-0.15490225	0.037122045	-0.9117853	0	0	0.4	5.4324934e-18
1.7800500819100543e-09	-0.16742432	0.012403778	-0.9122304	0	0	0.4	4.2022657e-18
1.7900013227661793e-09	-0.172841	0.0048597143	-0.9095229	0	0	0.4	4.766892e-18
1.8000620694500668e-09	-0.16682795	0.0031978814	-0.91412765	0	0	0.4	4.2639117e-18
1.8100555620911526e-09	-0.14177161	-0.007969362	-0.9177479	0	0	0.4	4.9921285e-18
1.8200046808042988e-09	-0.13901038	-0.02987149	-0.9195701	0	0	0.4	3.9797942e-18
1.8300358844506137e-09	-0.14150536	-0.047897264	-0.9175539	0	0	0.4	5.3381807e-18
1.840010089512175e-09	-0.15498674	-0.054389887	-0.9174907	0	0	0.4	4.9705084e-18
1.8500595791906858e-09	-0.17340249	-0.020531246	-0.91775274	0	0	0.4	3.3113347e-18
1.86002815150798e-09	-0.17307101	-0.02665079	-0.9149612	0	0	0.4	4.9471675e-18
1.870045204476505e-09	-0.17739229	-0.04845231	-0.9132366	0	0	0.4	4.548736e-18
1.880046086044522e-09	-0.1850725	-0.04371211	-0.913294	0	0	0.4	4.7119727e-18
1.890019366561245e-09	-0.16633959	-0.039314806	-0.9126033	0	0	0.4	3.8483267e-18
1.900042420707374e-09	-0.17848855	-0.033114206	-0.9139726	0	0	0.4	3.768492e-18
1.9100006807174637e-09	-0.17088675	-0.036983155	-0.9167688	0	0	0.4	5.1663257e-18
1.920044115459963e-09	-0.176182	-0.036075983	-0.9114708	0	0	0.4	4.6086285e-18
1.930021429445863e-09	-0.1831553	-0.04621022	-0.9098225	0	0	0.4	5.0247533e-18
1.940035626905747e-09	-0.1921774	-0.066862136	-0.91144	0	0	0.4	5.7187826e-18
1.9500426244246045e-09	-0.18117703	-0.075760454	-0.9114776	0	0	0.4	4.9354658e-18
1.960050080101609e-09	-0.17816387	-0.08883991	-0.91713035	0	0	0.4	4.428078e-18
1.9700274063899897e-09	-0.17666952	-0.08716202	-0.9209936	0	0	0.4	3.7848302e-18
1.980023163440109e-09	-0.15582873	-0.08620227	-0.9231532	0	0	0.4	5.2059307e-18
1.99000331345835e-09	-0.15119523	-0.089465834	-0.92215675	0	0	0.4	4.2546812e-18
2.000022337903403e-09	-0.1647915	-0.102934815	-0.9207351	0	0	0.4	5.4888335e-18
2.010063424557973e-09	-0.14423573	-0.10409281	-0.92316514	0	0	0.4	4.5868786e-18
2.0200001538029208e-09	-0.14212142	-0.12753972	-0.92081875	0	0	0.4	4.5862136e-18
2.0300207917013323e-09	-0.14692646	-0.1319829	-0.9222645	0	0	0.4	5.0588315e-18
2.040062036698019e-09	-0.13897996	-0.13030075	-0.92916226	0	0	0.4	4.5417472e-18
2.0500179698016683e-09	-0.15309261	-0.12763306	-0.9237601	0	0	0.4	4.897738e-18
2.060014690798435e-09	-0.16279054	-0.112058215	-0.9234631	0	0	0.4	4.269046e-18
2.0700461685864617e-09	-0.17275679	-0.098102845	-0.92254674	0	0	0.4	4.7560937e-18
2.080031646699878e-09	-0.16369098	-0.09776216	-0.9195796	0	0	0.4	4.0978027e-18
2.0900604707251052e-09	-0.16754042	-0.08895092	-0.9246205	0	0	0.4	5.230576e-18
2.100032239862061e-09	-0.17459929	-0.10140029	-0.92108333	0	0	0.4	4.8562765e-18
2.1100086771001258e-09	-0.16782753	-0.116521046	-0.91992354	0	0	0.4	4.3165163e-18
2.1200334664472395e-09	-0.17015685	-0.12360872	-0.9201816	0	0	0.4	4.0039008e-18
2.1300171488301044e-09	-0.17385383	-0.12462847	-0.9207527	0	0	0.4	5.7258306e-18
2.140018624369328e-09	-0.15259205	-0.121132076	-0.92128676	0	0	0.4	5.195551e-18
2.150000674836438e-09	-0.16893521	-0.14850725	-0.91995466	0	0	0.4	4.8128007e-18
2.160019772930385e-09	-0.1526321	-0.15117188	-0.9205923	0	0	0.4	5.2106485e-18
2.1700256084460633e-09	-0.15816885	-0.1504415	-0.92070603	0	0	0.4	4.8572546e-18
2.1800016193034148e-09	-0.16213901	-0.16166058	-0.9188989	0	0	0.4	5.3626686e-18
2.190013524183642e-09	-0.18165156	-0.16187212	-0.9192192	0	0	0.4	4.671646e-18
2.200020368160525e-09	-0.18605237	-0.14812844	-0.91621244	0	0	0.4	4.3199892e-18
2.2100074701382798e-09	-0.18474486	-0.1541263	-0.91602886	0	0	0.4	4.7963112e-18
2.2200566193005192e-09	-0.16807154	-0.13959934	-0.9179868	0	0	0.4	4.2920276e-18
2.2300084190870662e-09	-0.14933315	-0.12465949	-0.91679436	0	0	0.4	4.9131083e-18
2.2400572367410787e-09	-0.118810065	-0.14081241	-0.9190764	0	0	0.4	4.732831e-18
2.25005728671771e-09	-0.119916126	-0.17134614	-0.910521	0	0	0.4	4.971151e-18
2.260062223949095e-09	-0.119878195	-0.18998568	-0.90987647	0	0	0.4	4.200041e-18
2.2700490633502647e-09	-0.105122626	-0.1884945	-0.907738	0	0	0.4	4.208242e-18
2.2800036112955288e-09	-0.11436995	-0.17737661	-0.9083174	0	0	0.4	4.1122316e-18
2.290015468355634e-09	-0.11937851	-0.18034291	-0.8945739	0	0	0.4	5.059707e-18
2.30006065153168e-09	-0.1155967	-0.18834123	-0.8924332	0	0	0.4	5.452504e-18
2.3100529466151633e-09	-0.10531047	-0.17896216	-0.8886689	0	0	0.4	4.9335806e-18
2.3200367823183498e-09	-0.09961379	-0.18752326	-0.88469183	0	0	0.4	4.8834394e-18
2.3300024042666017e-09	-0.08002876	-0.18369922	-0.8965956	0	0	0.4	4.1396204e-18
2.3400477398599143e-09	-0.045720484	-0.19417866	-0.896683	0	0	0.4	4.1256117e-18
2.350035642849414e-09	-0.02503325	-0.19646044	-0.9010392	0	0	0.4	4.7989057e-18
2.3600167114366927e-09	-0.014886537	-0.21548526	-0.901642	0	0	0.4	5.4976967e-18
2.370009106610548e-09	-0.0036984899	-0.22637849	-0.90007114	0	0	0.4	4.1028775e-18
2.380059475531815e-09	-0.009821474	-0.20783195	-0.9067225	0	0	0.4	3.9413097e-18
2.3900051357810215e-09	-0.019372366	-0.21135189	-0.91247576	0	0	0.4	4.9754202e-18
2.400037915102971e-09	-0.018028546	-0.20698902	-0.9143949	0	0	0.4	4.804574e-18
2.4100423975756747e-09	-0.032978654	-0.19573478	-0.9223161	0	0	0.4	4.4184154e-18
2.4200195293075058e-09	-0.041220646	-0.16622277	-0.9250523	0	0	0.4	5.6722207e-18
2.4300573023784683e-09	-0.04380707	-0.1471839	-0.92263496	0	0	0.4	5.1967705e-18
2.440000659430021e-09	-0.04667516	-0.15557335	-0.9230487	0	0	0.4	4.706975e-18
2.4500637280554547e-09	-0.024205584	-0.1338698	-0.9255708	0	0	0.4	4.925466e-18
2.4600204290134126e-09	-0.023367576	-0.12660842	-0.9316734	0	0	0.4	4.9578137e-18
2.4700197828019064e-09	-0.011348724	-0.13156462	-0.9305651	0	0	0.4	3.995172e-18
2.480042268252654e-09	-0.04067966	-0.14166862	-0.9313843	0	0	0.4	5.0947927e-18
2.4900228832965733e-09	-0.054755278	-0.14846452	-0.9284759	0	0	0.4	5.3335175e-18
2.5000188412712335e-09	-0.05762227	-0.14553814	-0.9285618	0	0	0.4	4.7835756e-18
2.510038809040999e-09	-0.066353954	-0.12719384	-0.9275544	0	0	0.4	4.4364947e-18
2.5200198340740548e-09	-0.050293066	-0.1105069	-0.92376715	0	0	0.4	4.719507e-18
2.530053582864543e-09	-0.047540534	-0.108861305	-0.9227127	0	0	0.4	3.9463786e-18
2.540065102806873e-09	-0.037204005	-0.10669002	-0.92544276	0	0	0.4	4.2919143e-18
2.5500222692611315e-09	-0.02506095	-0.10686249	-0.9298915	0	0	0.4	5.4451393e-18
2.560053240620877e-09	-0.029003754	-0.11952007	-0.93099827	0	0	0.4	4.7407007e-18
2.5700254825566087e-09	-0.03294252	-0.1153581	-0.93328595	0	0	0.4	4.775697e-18
2.5800078925549537e-09	-0.044703543	-0.12469252	-0.92846644	0	0	0.4	4.0774656e-18
2.5900254989695106e-09	-0.064613305	-0.11961333	-0.925007	0	0	0.4	4.5836853e-18
2.6000172267412274e-09	-0.052030064	-0.12232319	-0.9204746	0	0	0.4	5.299433e-18
2.6100051599735845e-09	-0.043544862	-0.12035682	-0.92370814	0	0	0.4	4.7090044e-18
2.620018159747149e-09	-0.035290517	-0.13631421	-0.92298955	0	0	0.4	5.4933615e-18
2.6300123850406566e-09	-0.0352032	-0.120742425	-0.9219387	0	0	0.4	4.20303e-18
2.6400610957609384e-09	-0.040537953	-0.12641837	-0.92506343	0	0	0.4	5.279721e-18
2.6500351928064765e-09	-0.021691607	-0.12034484	-0.92097265	0	0	0.4	4.800756e-18
2.6600238109937337e-09	-0.02627119	-0.13393165	-0.9218532	0	0	0.4	5.0024277e-18
2.6700427492620057e-09	-0.043380436	-0.15248607	-0.92150366	0	0	0.4	4.2753587e-18
2.6800251829199946e-09	-0.05992931	-0.15824193	-0.92063063	0	0	0.4	4.6514314e-18
2.6900570992296413e-09	-0.052705046	-0.16217406	-0.91907954	0	0	0.4	4.226577e-18
2.7000155803469048e-09	-0.05055343	-0.16883115	-0.9249117	0	0	0.4	4.225671e-18
2.7100182151189863e-09	-0.037877373	-0.17633583	-0.91915816	0	0	0.4	5.0170055e-18
2.7200001681672732e-09	-0.03478446	-0.17985334	-0.9163638	0	0	0.4	3.931667e-18
2.7300488887920743e-09	-0.011501914	-0.1756054	-0.91649824	0	0	0.4	4.0720708e-18
2.7400301627116626e-09	-0.0083448	-0.16890723	-0.9147244	0	0	0.4	5.0582032e-18
2.750059311794122e-09	-0.0016542773	-0.17804368	-0.9156998	0	0	0.4	3.688322e-18
2.760055609141907e-09	-0.01357802	-0.19596632	-0.91005194	0	0	0.4	5.8225533e-18
2.7700449418228788e-09	-0.0052103787	-0.21028635	-0.9102245	0	0	0.4	4.697549e-18
2.780001095920585e-09	0.0031515036	-0.22715941	-0.9029096	0	0	0.4	4.92328e-18
2.7900176824014545e-09	-0.022586456	-0.22359753	-0.90659297	0	0	0.4	4.635712e-18
2.8000324817779244e-09	-0.024409572	-0.22120877	-0.90511715	0	0	0.4	4.3584382e-18
2.8100095767930866e-09	-0.027806813	-0.20345415	-0.9100813	0	0	0.4	5.062248e-18
2.820035876055428e-09	-0.03748842	-0.2135324	-0.90789443	0	0	0.4	4.5173607e-18
2.8300379430151414e-09	-0.029021056	-0.22289276	-0.910863	0	0	0.4	4.6564962e-18
2.8400622315935606e-09	-0.0086936485	-0.2181805	-0.9153489	0	0	0.4	5.1970836e-18
2.8500010913107235e-09	-0.015871916	-0.23737782	-0.91117793	0	0	0.4	5.6646433e-18
2.8600414563476993e-09	-0.013826806	-0.23637755	-0.9090619	0	0	0.4	4.846469e-18
2.8700300412838472e-09	-0.0032262655	-0.25203174	-0.9097192	0	0	0.4	6.212904e-18
2.88000571179329e-09	-0.005275845	-0.2599753	-0.90949345	0	0	0.4	4.9032657e-18
2.8900620124670785e-09	-0.010593823	-0.25406298	-0.90820235	0	0	0.4	4.938711e-18
2.9000066973246406e-09	-0.010870173	-0.25008628	-0.9008335	0	0	0.4	4.691025e-18
2.910038992468594e-09	-0.0122324	-0.23636647	-0.9002102	0	0	0.4	4.827079e-18
2.920034731724322e-09	0.00072208646	-0.22646002	-0.89946246	0	0	0.4	4.773605e-18
2.93005961995418e-09	0.026292143	-0.2187146	-0.9011904	0	0	0.4	4.8454023e-18
2.9400391411282103e-09	0.04518939	-0.21343116	-0.90817875	0	0	0.4	2.9474162e-18
2.9500554046071307e-09	0.03440081	-0.2080353	-0.90376806	0	0	0.4	4.8959253e-18
2.9600191410656293e-09	0.04477216	-0.19887483	-0.9075764	0	0	0.4	4.3742953e-18
2.970011365463154e-09	0.05195887	-0.20703645	-0.9143866	0	0	0.4	4.614753e-18
2.9800650179293355e-09	0.0598305	-0.21178341	-0.91270125	0	0	0.4	4.2013475e-18
2.9900235152828e-09	0.058438517	-0.19614294	-0.9165819	0	0	0.4	4.8365432e-18
3.0000462685803425e-09	0.070774116	-0.18790811	-0.92267716	0	0	0.4	4.7336986e-18
3.010029695253515e-09	0.08735818	-0.18871811	-0.92223233	0	0	0.4	4.158693e-18
3.020015674010864e-09	0.08443908	-0.18735072	-0.92621934	0	0	0.4	4.7811296e-18
3.0300565332791704e-09	0.07638328	-0.17552972	-0.92906076	0	0	0.4	4.679226e-18
3.040006671550451e-09	0.077158675	-0.18498312	-0.9292896	0	0	0.4	5.110328e-18
3.0500128836861876e-09	0.06688279	-0.18978976	-0.92943335	0	0	0.4	4.296607e-18
3.0600174544771353e-09	0.06893581	-0.1869276	-0.928089	0	0	0.4	5.4437145e-18
3.0700341253347352e-09	0.07628701	-0.18596661	-0.9226727	0	0	0.4	4.4882258e-18
3.0800579547888836e-09	0.07004618	-0.20150283	-0.9248445	0	0	0.4	3.835612e-18
3.0900483725390897e-09	0.073756285	-0.20361069	-0.92269725	0	0	0.4	5.9283174e-18
3.1000003213368957e-09	0.07157032	-0.2170282	-0.92178	0	0	0.4	4.6299474e-18
3.1100535518117703e-09	0.08651607	-0.22133869	-0.91740936	0	0	0.4	4.101604e-18
3.1200012576996937e-09	0.08522641	-0.21431367	-0.9151468	0	0	0.4	4.4167586e-18
3.130030216000956e-09	0.09483441	-0.19276026	-0.92007756	0	0	0.4	2.7046595e-18
3.1400162736321594e-09	0.11129589	-0.19218655	-0.9100062	0	0	0.4	4.3522633e-18
3.1500113661773247e-09	0.11457908	-0.18802746	-0.9145315	0	0	0.4	4.1863346e-18
3.1600114774363796e-09	0.11992901	-0.20182166	-0.9162485	0	0	0.4	4.9090646e-18
3.1700546575984506e-09	0.116166756	-0.21659002	-0.91354513	0	0	0.4	4.577473e-18
3.180055193755407e-09	0.09444643	-0.23199846	-0.9186537	0	0	0.4	4.656144e-18
3.190033602115737e-09	0.09511362	-0.23927672	-0.9175118	0	0	0.4	4.670207e-18
3.2000134168641284e-09	0.08019994	-0.24303293	-0.91057956	0	0	0.4	4.709087e-18
3.2100164336616528e-09	0.088492624	-0.22774239	-0.91836894	0	0	0.4	4.0244756e-18
3.220024594126325e-09	0.07800993	-0.20468508	-0.92403203	0	0	0.4	3.8099927e-18
3.2300167388452277e-09	0.08810075	-0.20101628	-0.9249535	0	0	0.4	4.823782e-18
3.2400473074624547e-09	0.08628519	-0.19345357	-0.92474306	0	0	0.4	4.3361767e-18
3.2500116089415243e-09	0.08222012	-0.20641613	-0.92302895	0	0	0.4	4.1186613e-18
3.260062560667815e-09	0.09119328	-0.20469481	-0.92253584	0	0	0.4	4.562985e-18
3.2700476709432114e-09	0.092116386	-0.21196157	-0.9190077	0	0	0.4	5.1673592e-18
3.2800006165954546e-09	0.11525596	-0.20592484	-0.91896003	0	0	0.4	5.498499e-18
3.290052078770517e-09	0.12531422	-0.22030093	-0.9136946	0	0	0.4	4.654824e-18
3.3000207319326447e-09	0.108676106	-0.21897742	-0.91954756	0	0	0.4	4.6384777e-18
3.310013119040707e-09	0.09341738	-0.23868188	-0.9175245	0	0	0.4	4.7886007e-18
3.3200379661514536e-09	0.07164392	-0.21223232	-0.9223744	0	0	0.4	4.719907e-18
3.3300242991583567e-09	0.06561743	-0.21392217	-0.91981226	0	0	0.4	4.051842e-18
3.3400342257847026e-09	0.06350588	-0.20482993	-0.91919786	0	0	0.4	4.0107e-18
3.35000032857341e-09	0.077421375	-0.20243002	-0.92132014	0	0	0.4	5.8264907e-18
3.36001504550481e-09	0.0938418	-0.21296512	-0.91823304	0	0	0.4	5.551146e-18
3.370038515881291e-09	0.11256262	-0.21468635	-0.9207523	0	0	0.4	4.979395e-18
3.3800630272779356e-09	0.12394649	-0.22879887	-0.9226517	0	0	0.4	4.39973e-18
3.3900453154296606e-09	0.106106386	-0.22999975	-0.9288577	0	0	0.4	4.32127e-18
3.4000127384229226e-09	0.109631866	-0.22745873	-0.9272532	0	0	0.4	5.361432e-18
3.4100647331377333e-09	0.11831305	-0.2253351	-0.92446786	0	0	0.4	5.249181e-18
3.420059603808397e-09	0.10507707	-0.2116495	-0.9255884	0	0	0.4	4.5112532e-18
3.430003249312445e-09	0.09313399	-0.18481432	-0.9269574	0	0	0.4	4.784222e-18
3.4400003324831773e-09	0.097394444	-0.17162295	-0.92796385	0	0	0.4	4.902637e-18
3.450021086514308e-09	0.12663113	-0.18144836	-0.9223313	0	0	0.4	3.9356104e-18
3.460024292213108e-09	0.14372303	-0.17660603	-0.92100066	0	0	0.4	5.199627e-18
3.470009500451011e-09	0.13793382	-0.20442079	-0.92262983	0	0	0.4	5.3058677e-18
3.480018416937369e-09	0.14587466	-0.20522627	-0.9207969	0	0	0.4	4.558251e-18
3.490005726447045e-09	0.14977868	-0.20118874	-0.91906166	0	0	0.4	5.2308127e-18
3.50000607122691e-09	0.15246841	-0.18306965	-0.92155087	0	0	0.4	3.425193e-18
3.5100246149317314e-09	0.14689527	-0.19460686	-0.9198877	0	0	0.4	4.8266845e-18
3.5200483676365304e-09	0.14043331	-0.1997415	-0.9137939	0	0	0.4	5.269776e-18
3.5300249868437446e-09	0.12827505	-0.1918992	-0.9185158	0	0	0.4	4.8995434e-18
3.5400256524423815e-09	0.14792596	-0.1836503	-0.91565454	0	0	0.4	4.427201e-18
3.5500152905633878e-09	0.12844221	-0.19101463	-0.9151022	0	0	0.4	4.4163764e-18
3.5600501715688656e-09	0.13385372	-0.1927841	-0.9131156	0	0	0.4	3.8607195e-18
3.570030866546438e-09	0.14987192	-0.21459289	-0.9101464	0	0	0.4	4.6850108e-18
3.5800505802722673e-09	0.14935057	-0.22534093	-0.90891796	0	0	0.4	5.487473e-18
3.590028620518042e-09	0.14503574	-0.22132699	-0.9109945	0	0	0.4	4.2100065e-18
3.6000389846715926e-09	0.14971383	-0.21937092	-0.90925574	0	0	0.4	4.9868142e-18
3.610050051138662e-09	0.14880387	-0.22619577	-0.90317976	0	0	0.4	4.454422e-18
3.620062689720977e-09	0.15213287	-0.22828713	-0.8999724	0	0	0.4	4.7333214e-18
3.630050806453383e-09	0.15211456	-0.22746423	-0.9012439	0	0	0.4	5.7042086e-18
3.6400058495615004e-09	0.1571407	-0.20516391	-0.90461725	0	0	0.4	3.201979e-18
3.6500526786211844e-09	0.15759674	-0.17993093	-0.9054149	0	0	0.4	5.2034773e-18
3.6600241615755725e-09	0.18733628	-0.1505586	-0.90201753	0	0	0.4	5.7759656e-18
3.6700280895528857e-09	0.2101555	-0.14869209	-0.9000984	0	0	0.4	4.8585086e-18
3.6800079164415077e-09	0.21377651	-0.15091363	-0.9057454	0	0	0.4	4.557602e-18
3.6900516585037945e-09	0.22033726	-0.1464451	-0.90817624	0	0	0.4	5.5331857e-18
3.7000490555895646e-09	0.20903891	-0.16181742	-0.9118287	0	0	0.4	5.123287e-18
3.710027960243259e-09	0.2015133	-0.17522536	-0.9121396	0	0	0.4	4.3471886e-18
3.720043144617893e-09	0.2052896	-0.18569559	-0.9016528	0	0	0.4	5.0726388e-18
3.730039899351583e-09	0.1850327	-0.16484955	-0.9049355	0	0	0.4	4.837671e-18
3.740057500258209e-09	0.17699406	-0.14359507	-0.90316486	0	0	0.4	4.482085e-18
3.750041213262449e-09	0.17621626	-0.11975683	-0.904041	0	0	0.4	5.5589594e-18
3.760041074040804e-09	0.18706317	-0.12370074	-0.9039911	0	0	0.4	4.803478e-18