# t (s)	mx ()	my ()	mz ()	B_extx (T)	B_exty (T)	B_extz (T)	E_total (J)
0	0	0	-1	0	0	0.4	1.2498702e-18
1.0013293506172384e-11	-0.0032585715	-0.006058527	-0.97616005	0	0	0.4	4.1934947e-18
2.0034836231303333e-11	-0.011376458	-0.0033819291	-0.96762264	0	0	0.4	4.1841293e-18
3.000829458258757e-11	-0.0017241251	0.0033165833	-0.9668442	0	0	0.4	4.9836176e-18
4.00266466806775e-11	-0.010314469	-0.0026964177	-0.96378577	0	0	0.4	5.250847e-18
5.00154937689836e-11	-0.016505595	0.002219503	-0.9634863	0	0	0.4	4.0312825e-18
6.006537588758504e-11	-0.015211875	-0.01681089	-0.9610409	0	0	0.4	4.2331245e-18
7.002104084096142e-11	-0.007139784	-0.018988466	-0.9557112	0	0	0.4	4.595872e-18
8.000234724315697e-11	0.018923571	-0.021961039	-0.9574159	0	0	0.4	3.390248e-18
9.005415883470941e-11	0.02667816	-0.025615726	-0.9560723	0	0	0.4	3.96307e-18
1.0005978901085092e-10	0.025754048	-0.009237392	-0.9569822	0	0	0.4	4.3191103e-18
1.100345761985944e-10	0.013199051	-0.006084764	-0.9567676	0	0	0.4	4.423308e-18
1.2000069174370673e-10	0.020295542	-0.019150654	-0.9532063	0	0	0.4	5.644941e-18
1.3003096763949143e-10	0.023400187	-0.030901348	-0.956182	0	0	0.4	5.299863e-18
1.4003542082150389e-10	0.031666473	-0.035612904	-0.9549571	0	0	0.4	4.837891e-18
1.500275606884665e-10	0.025196267	-0.031241914	-0.9567883	0	0	0.4	3.8003676e-18
1.600522088577086e-10	0.019965297	-0.046547476	-0.9525005	0	0	0.4	4.1814873e-18
1.7002909779058978e-10	0.019527452	-0.048299048	-0.9484708	0	0	0.4	4.386113e-18
1.8001330089331972e-10	0.019444428	-0.0550391	-0.9488949	0	0	0.4	3.8296527e-18
1.9004041877065028e-10	0.025864962	-0.05981051	-0.9462502	0	0	0.4	5.010902e-18
2.0004674406873845e-10	0.038149368	-0.070345424	-0.9465107	0	0	0.4	4.466466e-18
2.100464399516229e-10	0.032491688	-0.090687625	-0.9493449	0	0	0.4	4.2159597e-18
2.2001722146826836e-10	0.01298693	-0.09356646	-0.9488631	0	0	0.4	4.69215e-18
2.3003370445826175e-10	-0.0010305445	-0.09674609	-0.950068	0	0	0.4	4.2480592e-18
2.4000519461893845e-10	-0.02606498	-0.0707768	-0.9547583	0	0	0.4	3.7263275e-18
2.500293861203283e-10	-0.030364867	-0.04512521	-0.9523685	0	0	0.4	5.3827823e-18
2.6000895743151417e-10	-0.007075039	-0.043237034	-0.9500837	0	0	0.4	5.037957e-18
2.700314945308339e-10	-0.010900171	-0.045781117	-0.9516971	0	0	0.4	4.7007628e-18
2.8003185802386425e-10	0.0023412188	-0.054926734	-0.9525734	0	0	0.4	4.7155714e-18
2.9002713045387226e-10	0.017447457	-0.049796388	-0.9474083	0	0	0.4	4.7296306e-18
3.0001725932281097e-10	-0.00017963372	-0.06070995	-0.9462609	0	0	0.4	4.239897e-18
3.100368629438468e-10	-0.020185495	-0.064055786	-0.95129067	0	0	0.4	4.666783e-18
3.200460123470356e-10	-0.017594565	-0.053661563	-0.9520074	0	0	0.4	5.14305e-18
3.3003614442244163e-10	-0.030115167	-0.033292826	-0.9467006	0	0	0.4	3.4413563e-18
3.4003307161045374e-10	-0.02896712	-0.024102816	-0.9454777	0	0	0.4	4.432087e-18
3.5003945460670376e-10	-0.042395588	-0.016300237	-0.9446529	0	0	0.4	4.150575e-18
3.600052563107868e-10	-0.014484327	-0.011838509	-0.9476529	0	0	0.4	4.5220314e-18
3.700381294118983e-10	-0.005787701	-0.012068992	-0.9501242	0	0	0.4	3.7651144e-18
3.800375914439052e-10	-0.005757859	-0.02024102	-0.94445854	0	0	0.4	5.1328158e-18
3.9003163885541185e-10	-0.008501429	-0.025249528	-0.9473672	0	0	0.4	4.14352e-18
4.0000794159349445e-10	-0.014881032	-0.016768241	-0.9468901	0	0	0.4	5.0395962e-18
4.100595191887046e-10	-0.039814588	0.0001619097	-0.9471071	0	0	0.4	4.7538144e-18
4.200125884186905e-10	-0.048294462	0.022043202	-0.9432538	0	0	0.4	4.9339615e-18
4.300526371077884e-10	-0.046570566	0.048870847	-0.9426489	0	0	0.4	4.0295545e-18
4.4006372477713813e-10	-0.041112572	0.04434075	-0.93889	0	0	0.4	4.687332e-18
4.500277185780317e-10	-0.036930807	0.036694948	-0.9387189	0	0	0.4	5.3915033e-18
4.600081207975824e-10	-0.030163413	0.019925658	-0.9414701	0	0	0.4	4.741973e-18
4.700437804797909e-10	-0.025720414	0.0019586433	-0.9468675	0	0	0.4	4.887569e-18
4.80025035663015e-10	-0.027386552	-0.002971834	-0.9476868	0	0	0.4	4.7667325e-18
4.90041187737591e-10	-0.03168686	-0.02462862	-0.9421908	0	0	0.4	4.3514465e-18
5.000144468334256e-10	-0.03746954	-0.02856505	-0.9385034	0	0	0.4	4.7201866e-18
5.100208454584445e-10	-0.047797136	-0.0076072016	-0.9385924	0	0	0.4	5.4011267e-18
5.20002394758172e-10	-0.049648765	0.006326593	-0.9403004	0	0	0.4	5.1628164e-18
5.300259687129156e-10	-0.023702862	0.04732974	-0.9411643	0	0	0.4	4.8567157e-18
5.4005070081799e-10	-0.016434751	0.042862166	-0.93905026	0	0	0.4	4.9607634e-18
5.500627469499758e-10	-0.0064513776	0.02923721	-0.9376563	0	0	0.4	4.388841e-18
5.600208925636415e-10	0.0075978306	0.016046278	-0.9412352	0	0	0.4	5.3545217e-18
5.70050228915842e-10	-0.008782357	0.0050304737	-0.94424903	0	0	0.4	3.9791048e-18
5.800535425643803e-10	-0.05028495	0.0028322095	-0.9486712	0	0	0.4	4.381592e-18
5.90012593946534e-10	-0.05815028	0.004929239	-0.94315416	0	0	0.4	4.857269e-18
6.000281291712645e-10	-0.06155881	0.018832335	-0.93644047	0	0	0.4	4.5615173e-18
6.100092776086239e-10	-0.044284783	0.03700153	-0.9401839	0	0	0.4	4.3308476e-18
6.20046689364684e-10	-0.023178747	0.04965357	-0.9467378	0	0	0.4	5.5684666e-18
6.300205199981243e-10	-0.010371874	0.04624052	-0.9489631	0	0	0.4	4.6376956e-18
6.400018642260717e-10	-0.023748072	0.02524892	-0.945814	0	0	0.4	4.416935e-18
6.500211011508501e-10	-0.008911794	0.012769333	-0.9430471	0	0	0.4	5.7807083e-18
6.600199861828961e-10	-0.007228532	0.009666876	-0.9448846	0	0	0.4	4.37132e-18
6.700175675541324e-10	-0.028910575	-0.005129382	-0.94596374	0	0	0.4	3.971064e-18
6.80035448547554e-10	-0.03800172	0.0072835796	-0.9432999	0	0	0.4	5.184115e-18
6.900460184477809e-10	-0.04822737	0.01208256	-0.9473296	0	0	0.4	4.4480872e-18
7.000512409701327e-10	-0.047344197	0.013274628	-0.942528	0	0	0.4	4.3915805e-18
7.100380304762225e-10	-0.03963552	0.04343215	-0.9392178	0	0	0.4	4.1878413e-18
7.200567852403149e-10	-0.014569085	0.041494712	-0.93883044	0	0	0.4	5.0602613e-18
7.300321762753244e-10	0.002753058	0.036918197	-0.9424963	0	0	0.4	3.1342703e-18
7.40061506652982e-10	0.0008488359	0.03065686	-0.94317853	0	0	0.4	4.8907012e-18
7.500072811165018e-10	0.014739854	0.011125619	-0.9417307	0	0	0.4	5.2917097e-18
7.600349235436973e-10	0.021469159	0.0010763318	-0.94616026	0	0	0.4	5.5336443e-18
7.700367280569214e-10	0.014220867	-0.00021849477	-0.9441599	0	0	0.4	4.2731985e-18
7.800216709303169e-10	0.0067898934	0.008750511	-0.94406176	0	0	0.4	4.9053022e-18
7.900026938095702e-10	0.0033984866	0.008488598	-0.9438302	0	0	0.4	4.5918504e-18
8.0002805544992e-10	0.011356027	0.02488102	-0.94459337	0	0	0.4	4.4172384e-18
8.100609071097666e-10	0.031529803	0.03703799	-0.9436133	0	0	0.4	4.84571e-18
8.200144601221449e-10	0.048316	0.013818031	-0.9416457	0	0	0.4	4.5464394e-18
8.300098722747208e-10	0.03109196	-0.017091084	-0.94773084	0	0	0.4	3.9606988e-18
8.400560239941193e-10	0.025247298	-0.018474258	-0.9507026	0	0	0.4	4.480678e-18
8.500542771430839e-10	0.020669686	-0.011544586	-0.94600886	0	0	0.4	4.669683e-18
8.600247988681289e-10	0.011299692	-0.005241747	-0.943093	0	0	0.4	4.5293685e-18
8.700448547866053e-10	0.004223697	0.0074856784	-0.94299346	0	0	0.4	4.694378e-18
8.80008965234863e-10	-0.00278104	0.030503606	-0.9468347	0	0	0.4	4.099099e-18
8.900624717083394e-10	0.010902884	0.044066235	-0.94293725	0	0	0.4	4.5421492e-18
9.000295204726739e-10	0.021857778	0.056294836	-0.9431651	0	0	0.4	4.7352293e-18
9.100299210935446e-10	0.02883282	0.037514362	-0.9394665	0	0	0.4	5.219409e-18
9.200017901349447e-10	0.026688263	0.012423349	-0.9449009	0	0	0.4	4.9214827e-18
9.300310118251328e-10	0.018291347	0.012793391	-0.9492208	0	0	0.4	4.7120116e-18
9.400069092308972e-10	0.015844055	-0.01505653	-0.9500364	0	0	0.4	4.1575206e-18
9.50035086260272e-10	-0.0041093496	-0.016339798	-0.9489803	0	0	0.4	5.766441e-18
9.60020416200081e-10	-0.012133702	-0.005230737	-0.94736284	0	0	0.4	5.588255e-18
9.700577416480423e-10	-0.0299036	-0.0054882937	-0.9475241	0	0	0.4	4.9759612e-18
9.800453078862375e-10	-0.01969155	0.012032721	-0.94928783	0	0	0.4	4.9857976e-18
9.900238278921498e-10	-0.0127254985	0.017966304	-0.95200396	0	0	0.4	5.062009e-18
1.0000083841225999e-09	-0.0010271954	0.0011795084	-0.9532439	0	0	0.4	4.3328833e-18
1.010004449736039e-09	-0.00298229	-0.0023606645	-0.9504684	0	0	0.4	4.384632e-18
1.0200571966906363e-09	0.007896708	-0.016348416	-0.9511066	0	0	0.4	3.796483e-18
1.0300196497860454e-09	-0.010526837	-0.034957267	-0.95030004	0	0	0.4	4.4205305e-18
1.0400085348395487e-09	-0.023532202	-0.026434047	-0.9525351	0	0	0.4	4.8538652e-18
1.0500557952228524e-09	-0.021769874	-0.004018705	-0.9525184	0	0	0.4	4.170084e-18
1.0600119326388772e-09	-0.02972452	0.026484445	-0.9481792	0	0	0.4	5.384842e-18
1.0700023041857015e-09	-0.026989877	0.035381924	-0.94994897	0	0	0.4	4.6970793e-18
1.0800229171575944e-09	-0.02025237	0.04344729	-0.95193917	0	0	0.4	5.071078e-18
1.0900127520083857e-09	-0.0028411064	0.027882705	-0.9536095	0	0	0.4	4.2418095e-18
1.100052795086977e-09	0.0010294357	0.015563822	-0.9559332	0	0	0.4	4.3724275e-18
1.1100633343182707e-09	0.0012066693	0.00825444	-0.95466757	0	0	0.4	4.951988e-18
1.1200211288012886e-09	-0.011579393	-0.010622694	-0.9542504	0	0	0.4	4.5733207e-18
1.130047971388943e-09	-0.012034866	-0.01775078	-0.9560129	0	0	0.4	4.242209e-18
1.1400556590821966e-09	-0.01398834	-0.012238436	-0.9584681	0	0	0.4	4.1752926e-18
1.1500276977284532e-09	-0.018639633	-0.01632569	-0.95802134	0	0	0.4	3.8851627e-18
1.1600519333610053e-09	-0.023695063	-0.004981313	-0.95769435	0	0	0.4	5.1603485e-18
1.170041729394039e-09	-0.018183563	0.00097580586	-0.9594853	0	0	0.4	3.755391e-18
1.180008299644253e-09	-0.015377214	0.023440287	-0.96128625	0	0	0.4	4.630351e-18
1.190046765455504e-09	0.018451985	0.02704733	-0.96039855	0	0	0.4	4.42165e-18
1.200060728559986e-09	0.02168285	0.016061852	-0.95930284	0	0	0.4	4.897762e-18
1.210064235427102e-09	0.03437974	-0.011662412	-0.95715815	0	0	0.4	5.3509706e-18
1.220044770933901e-09	0.03259067	-0.02693305	-0.95799965	0	0	0.4	4.640891e-18
1.2300065035610912e-09	0.014683989	-0.025532108	-0.95706886	0	0	0.4	4.267998e-18
1.2400212743402788e-09	0.006566897	-0.033610776	-0.9551182	0	0	0.4	4.983608e-18
1.2500035147592808e-09	-0.016487863	-0.02607127	-0.95703435	0	0	0.4	4.6171944e-18
1.2600576701147017e-09	0.0016880261	-0.01824753	-0.95576715	0	0	0.4	3.974463e-18
1.2700192494188679e-09	0.010900007	-0.016893469	-0.95583636	0	0	0.4	4.96126e-18
1.2800346407205477e-09	0.030535098	-0.024958817	-0.9518072	0	0	0.4	4.0981232e-18
1.2900275015998976e-09	0.027902856	-0.024836265	-0.9523926	0	0	0.4	4.7631318e-18
1.3000012884361636e-09	0.029912436	-0.021143422	-0.9575786	0	0	0.4	4.2308497e-18
1.3100634785483703e-09	0.031830776	-0.016243093	-0.9592276	0	0	0.4	4.513358e-18
1.3200132192301039e-09	0.030782336	-0.013219761	-0.9553218	0	0	0.4	5.0193237e-18
1.3300286505359158e-09	0.019782122	-0.020825667	-0.95552236	0	0	0.4	5.368968e-18
1.3400576417014378e-09	0.02911882	-0.015986307	-0.9564336	0	0	0.4	4.9196786e-18
1.3500229577106348e-09	0.04040777	-0.008464941	-0.957945	0	0	0.4	4.1417475e-18
1.3600272088935701e-09	0.035430957	-0.012835016	-0.95034194	0	0	0.4	4.7778974e-18
1.3700463276129576e-09	0.03123609	-0.0009987154	-0.94840163	0	0	0.4	5.2210424e-18
1.3800473634419006e-09	0.03123325	-0.00898652	-0.94756263	0	0	0.4	4.734222e-18
1.3900510742331363e-09	0.018311063	-0.005221191	-0.9461177	0	0	0.4	5.3275316e-18
1.4000178473934257e-09	-0.0040727295	0.002199605	-0.94897807	0	0	0.4	4.472873e-18
1.410063538751922e-09	-0.011790877	-0.0029067053	-0.9492956	0	0	0.4	4.0604795e-18
1.4200265251529734e-09	-0.014966619	0.0003203324	-0.9479035	0	0	0.4	5.1610743e-18
1.4300218145179296e-09	-0.018708263	0.02151071	-0.9438845	0	0	0.4	3.742302e-18
1.4400084187298353e-09	-0.0062017865	0.0291319	-0.9457061	0	0	0.4	4.038854e-18
1.45004126784843e-09	0.006816563	0.020033801	-0.9479982	0	0	0.4	4.23184e-18
1.4600491458138925e-09	-0.002702088	0.029387787	-0.9514398	0	0	0.4	4.4078246e-18
1.4700172640966474e-09	0.015516746	0.03151264	-0.95423627	0	0	0.4	4.583432e-18
1.4800427352658201e-09	0.004817351	0.046639778	-0.95012	0	0	0.4	4.6539237e-18
1.490016458855715e-09	0.008159333	0.046916313	-0.9533573	0	0	0.4	4.4614834e-18
1.5000126386098498e-09	0.012242714	0.05047498	-0.94863653	0	0	0.4	4.798476e-18
1.5100440099818653e-09	0.0064176256	0.04513049	-0.9459937	0	0	0.4	4.5830273e-18
1.5200436265528748e-09	0.0016379802	0.049746543	-0.9422239	0	0	0.4	4.7905814e-18
1.5300533179584703e-09	0.018396541	0.058574796	-0.93557316	0	0	0.4	4.783656e-18
1.5400095169494775e-09	0.015425889	0.07005638	-0.92741764	0	0	0.4	5.311444e-18
1.5500584805187256e-09	0.016100653	0.08825831	-0.92362076	0	0	0.4	5.1782726e-18
1.5600166437963263e-09	0.010791365	0.08211462	-0.92669266	0	0	0.4	5.7704756e-18
1.5700099286928323e-09	0.0007882987	0.070951134	-0.9309336	0	0	0.4	5.3334013e-18
1.580042768476934e-09	-0.009919824	0.060838576	-0.9259757	0	0	0.4	4.8353285e-18
1.590049307450674e-09	-0.029877277	0.055561084	-0.93037665	0	0	0.4	4.821981e-18
1.6000437865924995e-09	-0.040164854	0.04686039	-0.9308775	0	0	0.4	4.749689e-18
1.6100089331687179e-09	-0.030152729	0.05520391	-0.93474156	0	0	0.4	4.9899133e-18
1.620064929026113e-09	-0.019402442	0.06305424	-0.94190097	0	0	0.4	4.3841433e-18
1.6300158917764829e-09	-0.019810356	0.06747553	-0.9446118	0	0	0.4	5.7787086e-18
1.6400454653551733e-09	-0.012831501	0.072868295	-0.949577	0	0	0.4	4.7116952e-18
1.6500029913459353e-09	0.001694637	0.05739555	-0.9471208	0	0	0.4	4.7098978e-18
1.6600015227071715e-09	-0.001436304	0.057308093	-0.9433066	0	0	0.4	4.56706e-18
1.6700432602856451e-09	0.005609975	0.031374812	-0.94600916	0	0	0.4	4.2086797e-18
1.6800196095175989e-09	0.015468398	0.036594078	-0.9425975	0	0	0.4	4.3209913e-18
1.6900592542419741e-09	0.009402749	0.04274448	-0.9427571	0	0	0.4	4.498127e-18
1.7000365188746645e-09	-0.005262821	0.05072575	-0.9378352	0	0	0.4	4.3527944e-18
1.710056778853321e-09	-0.010318375	0.052792344	-0.93956935	0	0	0.4	5.0334437e-18
1.7200329440641923e-09	0.011950488	0.07538869	-0.9388895	0	0	0.4	4.3390375e-18
1.730032981504637e-09	-0.0048435074	0.06513822	-0.9418879	0	0	0.4	4.8676916e-18
1.7400620833065625e-09	-0.008361995	0.047911517	-0.9456983	0	0	0.4	3.8470508e-18
1.7500559019746658e-09	-0.0054880762	0.024284368	-0.9500848	0	0	0.4	4.157921e-18
1.7600136618487532e-09	-0.005099535	0.011315219	-0.95172876	0	0	0.4	4.016549e-18
1.7700126175963464e-09	-0.030601034	0.029708631	-0.9519576	0	0	0.4	4.540804e-18
1.7800324293570894e-09	-0.043888073	0.020056475	-0.94997734	0	0	0.4	5.043e-18
1.790035611269704e-09	-0.06397758	0.032141134	-0.9486593	0	0	0.4	4.368879e-18
1.800037597932743e-09	-0.06545104	0.044757444	-0.94790184	0	0	0.4	6.0067114e-18
1.8100510796243541e-09	-0.049264837	0.06704273	-0.9438732	0	0	0.4	4.54911e-18
1.8200572082873176e-09	-0.046154924	0.06463806	-0.9452169	0	0	0.4	4.922373e-18
1.8300162513262134e-09	-0.0433475	0.055100907	-0.9432331	0	0	0.4	4.9408594e-18
1.8400287504015926e-09	-0.059057057	0.015556121	-0.93852115	0	0	0.4	4.3697747e-18
1.850024151202601e-09	-0.058453076	0.012137091	-0.93584746	0	0	0.4	5.266763e-18
1.860011133051285e-09	-0.061628785	-0.011888316	-0.930795	0	0	0.4	3.7576156e-18
1.8700100598725795e-09	-0.07094789	-0.019384686	-0.9308099	0	0	0.4	4.815409e-18
1.8800117256499623e-09	-0.056597445	-0.020378554	-0.9320669	0	0	0.4	4.367739e-18
1.8900381409574485e-09	-0.060358856	-0.01983116	-0.9334541	0	0	0.4	5.33923e-18
1.9000175807372357e-09	-0.061632574	-0.0060001267	-0.93936366	0	0	0.4	4.1271544e-18
1.910014511382843e-09	-0.06595251	-0.0034168707	-0.9418494	0	0	0.4	5.1135503e-18
1.920009171885921e-09	-0.041136358	-0.010689362	-0.9448228	0	0	0.4	5.200022e-18
1.9300547613173597e-09	-0.032528467	0.006782379	-0.95017505	0	0	0.4	5.418956e-18
1.9400358180504414e-09	-0.05342453	0.010745862	-0.95197946	0	0	0.4	4.946914e-18
1.950021870996867e-09	-0.06372559	0.016690496	-0.9496814	0	0	0.4	3.8710444e-18
1.9600058785520613e-09	-0.07134808	0.029834442	-0.9463468	0	0	0.4	5.036667e-18
1.9700644110609312e-09	-0.08064721	0.0416737	-0.94455194	0	0	0.4	4.405835e-18
1.980026403992206e-09	-0.08156322	0.05848739	-0.9440135	0	0	0.4	4.7984685e-18
1.990015447295896e-09	-0.07508977	0.058580842	-0.9413995	0	0	0.4	4.519964e-18
2.0000077482703485e-09	-0.094120204	0.06836152	-0.93582606	0	0	0.4	3.60719e-18
2.0100355261174933e-09	-0.09359497	0.06544099	-0.9288667	0	0	0.4	4.9699137e-18
2.020039226070547e-09	-0.102653876	0.039303564	-0.9301468	0	0	0.4	4.483946e-18
2.0300614034300764e-09	-0.103517815	0.04541336	-0.93158937	0	0	0.4	4.8853858e-18
2.0400393505131904e-09	-0.08485609	0.038713686	-0.9418713	0	0	0.4	5.069289e-18
2.050038967247112e-09	-0.10920648	0.03841139	-0.9375935	0	0	0.4	4.5531694e-18
2.0600268663158326e-09	-0.12704977	0.047477055	-0.94124734	0	0	0.4	4.537021e-18
2.0700311872678024e-09	-0.12034759	0.060801722	-0.9423759	0	0	0.4	4.373425e-18
2.080008645724309e-09	-0.12683193	0.04985106	-0.9457928	0	0	0.4	3.9634773e-18
2.0900354313893756e-09	-0.13062957	0.052505657	-0.94495714	0	0	0.4	4.9521306e-18
2.1000216576039476e-09	-0.13435899	0.058388356	-0.94509995	0	0	0.4	4.7228543e-18
2.1100527781682186e-09	-0.13463262	0.062604725	-0.94439703	0	0	0.4	4.6139688e-18
2.1200061021124977e-09	-0.15050817	0.0639156	-0.9348558	0	0	0.4	4.0544717e-18
2.1300297799785775e-09	-0.13169223	0.09132842	-0.9339711	0	0	0.4	4.715505e-18
2.1400497167264115e-09	-0.123947516	0.09181815	-0.9349254	0	0	0.4	3.381198e-18
2.1500343773328222e-09	-0.12881847	0.09873782	-0.9307953	0	0	0.4	5.1405073e-18
2.160053264386646e-09	-0.114598826	0.1093343	-0.9288114	0	0	0.4	4.2180884e-18
2.1700580093499133e-09	-0.10068472	0.0961089	-0.93091077	0	0	0.4	4.26421e-18
2.180057385543359e-09	-0.11545426	0.09974112	-0.9289282	0	0	0.4	5.078023e-18
2.1900516905647954e-09	-0.12785777	0.08201872	-0.92950475	0	0	0.4	3.7463105e-18
2.2000405982714415e-09	-0.12549941	0.062164757	-0.93582547	0	0	0.4	3.9113686e-18
2.2100350250320136e-09	-0.13500376	0.06309142	-0.9367296	0	0	0.4	3.604173e-18
2.2200575035915094e-09	-0.1316182	0.075297505	-0.93470186	0	0	0.4	4.970562e-18
2.2300347440334787e-09	-0.12611535	0.0805926	-0.9403048	0	0	0.4	4.9505742e-18
2.24006169490974e-09	-0.12794124	0.09785947	-0.9387346	0	0	0.4	4.7571306e-18
2.250042900398219e-09	-0.117372364	0.09937477	-0.94097644	0	0	0.4	4.587076e-18
2.2600392615294743e-09	-0.10676092	0.10395345	-0.9406831	0	0	0.4	4.810285e-18
2.27005331645729e-09	-0.125208	0.10335569	-0.934587	0	0	0.4	4.8769593e-18
2.2800459299987535e-09	-0.11071666	0.10108707	-0.9334109	0	0	0.4	4.3585305e-18
2.290015108466969e-09	-0.117573045	0.09665361	-0.93462735	0	0	0.4	4.8699696e-18
2.30000903193009e-09	-0.11577204	0.10423326	-0.9328124	0	0	0.4	4.837416e-18
2.310046485331046e-09	-0.1281702	0.09880253	-0.9312129	0	0	0.4	4.6958977e-18
2.320025337390792e-09	-0.11703783	0.11749016	-0.9296633	0	0	0.4	5.6012696e-18
2.330023385569626e-09	-0.112683676	0.13354972	-0.9339435	0	0	0.4	5.0993323e-18
2.3400518053968263e-09	-0.11753461	0.127392	-0.9374624	0	0	0.4	4.1714085e-18
2.3500471786351545e-09	-0.11256863	0.1336456	-0.9354218	0	0	0.4	4.7677793e-18
2.360061454867346e-09	-0.09503326	0.12520969	-0.94010705	0	0	0.4	4.017509e-18
2.3700123335726485e-09	-0.091564	0.13749212	-0.94236344	0	0	0.4	4.740259e-18
2.380005427236135e-09	-0.10277483	0.15938316	-0.93824387	0	0	0.4	5.887051e-18
2.3900158630877305e-09	-0.119981885	0.15503395	-0.9327621	0	0	0.4	5.0752547e-18
2.4000331690952008e-09	-0.12664205	0.15188062	-0.92970127	0	0	0.4	4.8641855e-18
2.4100281223204365e-09	-0.120873116	0.14744936	-0.9329296	0	0	0.4	4.9897557e-18
2.4200086868050885e-09	-0.11951062	0.13462535	-0.9363648	0	0	0.4	4.025547e-18
2.4300045273181247e-09	-0.09662434	0.15175723	-0.93637776	0	0	0.4	3.908135e-18
2.4400247883130996e-09	-0.08217455	0.15260696	-0.9379289	0	0	0.4	4.8101475e-18
2.4500087424024167e-09	-0.08482565	0.16553317	-0.93105435	0	0	0.4	5.0012225e-18
2.4600485364288583e-09	-0.0685067	0.17884961	-0.93458444	0	0	0.4	4.6836856e-18
2.4700196246244633e-09	-0.06874051	0.17569119	-0.93567884	0	0	0.4	4.4063473e-18
2.480026678941295e-09	-0.07027799	0.16631131	-0.93636155	0	0	0.4	3.8654357e-18
2.490023146474359e-09	-0.0632614	0.16178131	-0.93819815	0	0	0.4	4.9386546e-18
2.5000110215418344e-09	-0.06813651	0.15417571	-0.9403177	0	0	0.4	3.5165905e-18
2.5100056572982315e-09	-0.0745072	0.17071864	-0.9366078	0	0	0.4	5.0498988e-18
2.520025586158731e-09	-0.08491685	0.17694098	-0.93353695	0	0	0.4	4.5511204e-18
2.530048915982194e-09	-0.10307399	0.17765658	-0.93416053	0	0	0.4	5.4713613e-18
2.5400334906313865e-09	-0.09792444	0.16886537	-0.93899745	0	0	0.4	4.2601646e-18
2.550042046763588e-09	-0.09233086	0.19163856	-0.9324265	0	0	0.4	3.8597984e-18
2.560047091666293e-09	-0.081195444	0.1990379	-0.9243285	0	0	0.4	5.2407566e-18
2.57001187436757e-09	-0.07917771	0.1986344	-0.92652136	0	0	0.4	4.172212e-18
2.580057456422532e-09	-0.08736757	0.19512095	-0.92300224	0	0	0.4	3.874315e-18
2.5900349439288412e-09	-0.07502261	0.168839	-0.9250506	0	0	0.4	4.5213556e-18
2.6000186575318892e-09	-0.085460946	0.143799	-0.9271877	0	0	0.4	5.5407295e-18
2.61003528810032e-09	-0.106541894	0.12875335	-0.92025256	0	0	0.4	5.1566845e-18
2.620040496634099e-09	-0.119278446	0.1565383	-0.91143477	0	0	0.4	4.897747e-18
2.6300155003251434e-09	-0.117496096	0.16806754	-0.90869606	0	0	0.4	3.9440927e-18
2.640030104168383e-09	-0.12457204	0.16438511	-0.9114737	0	0	0.4	4.241132e-18
2.6500367027686003e-09	-0.12676793	0.15041186	-0.91452944	0	0	0.4	5.181493e-18
2.6600186024408616e-09	-0.14375326	0.14041437	-0.9125582	0	0	0.4	4.4036896e-18
2.6700282281192435e-09	-0.1484878	0.14130019	-0.9101573	0	0	0.4	5.1530436e-18
2.6800144791555605e-09	-0.14027226	0.13386026	-0.9103171	0	0	0.4	4.6831724e-18
2.690056068837568e-09	-0.14538386	0.13471647	-0.9101435	0	0	0.4	4.1510744e-18
2.700006431577734e-09	-0.16241015	0.1290467	-0.913931	0	0	0.4	4.370609e-18
2.7100400458016683e-09	-0.15752107	0.13262846	-0.91288316	0	0	0.4	4.566734e-18
2.720001841731452e-09	-0.17402777	0.13300389	-0.91531426	0	0	0.4	4.97535e-18
2.730032157697568e-09	-0.16138144	0.13686447	-0.9160545	0	0	0.4	5.085343e-18
2.7400554060624774e-09	-0.17749737	0.15063536	-0.9181973	0	0	0.4	4.7764184e-18
2.750047433905351e-09	-0.14724422	0.14148015	-0.92218274	0	0	0.4	4.9084827e-18
2.760003203810009e-09	-0.13591428	0.14134218	-0.9249778	0	0	0.4	3.5639106e-18
2.770055428131205e-09	-0.12616128	0.14537525	-0.91552013	0	0	0.4	4.5838586e-18
2.7800311032815743e-09	-0.12983096	0.11318034	-0.9184323	0	0	0.4	4.4237086e-18
2.7900539595207896e-09	-0.15401293	0.106995516	-0.9173208	0	0	0.4	4.368045e-18
2.8000539506855244e-09	-0.17477775	0.107518695	-0.91173804	0	0	0.4	4.6027386e-18
2.8100141163700656e-09	-0.1627573	0.10847263	-0.9155458	0	0	0.4	4.3810203e-18
2.8200460566382162e-09	-0.19634797	0.111584835	-0.9130446	0	0	0.4	4.6248615e-18
2.830038201227558e-09	-0.18761905	0.13604759	-0.9166254	0	0	0.4	4.699122e-18
2.8400026045846673e-09	-0.18010293	0.12392012	-0.9179791	0	0	0.4	4.8062726e-18
2.850023560352494e-09	-0.17295916	0.11345114	-0.9189966	0	0	0.4	3.7275637e-18
2.8600584602248036e-09	-0.16978736	0.109099016	-0.91455936	0	0	0.4	4.3376144e-18
2.87001347380335e-09	-0.14996882	0.09515323	-0.9116766	0	0	0.4	4.854602e-18
2.8800408280400833e-09	-0.14675818	0.07200746	-0.90894544	0	0	0.4	4.9013305e-18
2.8900110770634e-09	-0.157886	0.057380036	-0.90849507	0	0	0.4	3.320394e-18
2.9000476898155432e-09	-0.17547329	0.035994336	-0.91058034	0	0	0.4	4.251148e-18
2.9100511365239683e-09	-0.19037093	0.0108997105	-0.91447014	0	0	0.4	4.361407e-18
2.9200413890014867e-09	-0.18428235	0.017415209	-0.92524666	0	0	0.4	4.6230814e-18
2.930018151651614e-09	-0.18850802	0.03572095	-0.92903596	0	0	0.4	4.894414e-18
2.9400361743813373e-09	-0.18020321	0.058102965	-0.9355463	0	0	0.4	4.6045e-18
2.9500499948911594e-09	-0.18104297	0.06878512	-0.9365442	0	0	0.4	5.81139e-18
2.9600135964996813e-09	-0.16463263	0.07768947	-0.9344505	0	0	0.4	4.782531e-18
2.970055984662581e-09	-0.1593359	0.06345444	-0.93600225	0	0	0.4	5.3068128e-18
2.9800372875378432e-09	-0.15305074	0.069824874	-0.9380273	0	0	0.4	5.061855e-18
2.990032608304837e-09	-0.15741931	0.062419657	-0.9390597	0	0	0.4	4.7992887e-18
3.0000023646712367e-09	-0.15882564	0.06552183	-0.93870115	0	0	0.4	4.6365583e-18
3.0100454953579933e-09	-0.1624201	0.066098556	-0.9368853	0	0	0.4	4.8986397e-18
3.0200046607407055e-09	-0.15837157	0.08864068	-0.9377145	0	0	0.4	3.942072e-18
3.0300284690893392e-09	-0.16731901	0.091283396	-0.9378035	0	0	0.4	5.284065e-18
3.0400014945423135e-09	-0.16636305	0.115689546	-0.93203264	0	0	0.4	4.114263e-18
3.050000815467425e-09	-0.14999585	0.102015756	-0.9319534	0	0	0.4	4.0090193e-18
3.0600125403233894e-09	-0.14616515	0.10404793	-0.92997175	0	0	0.4	3.9877794e-18
3.0700234015626893e-09	-0.12905823	0.091092244	-0.931554	0	0	0.4	4.1902546e-18
3.080037640611961e-09	-0.14445196	0.08859187	-0.9298714	0	0	0.4	4.5356852e-18
3.0900043056797228e-09	-0.17382583	0.062091667	-0.9323247	0	0	0.4	4.517687e-18
3.100058552046464e-09	-0.18252687	0.064790666	-0.92874354	0	0	0.4	4.3292425e-18
3.110056950137739e-09	-0.20045291	0.07467103	-0.9234601	0	0	0.4	3.904399e-18
3.120026737426511e-09	-0.21610142	0.09633832	-0.9237202	0	0	0.4	4.8725463e-18
3.130043366472498e-09	-0.20654248	0.115355894	-0.92231715	0	0	0.4	5.4469546e-18
3.140064450721278e-09	-0.19224541	0.121386014	-0.9266446	0	0	0.4	3.8274226e-18
3.150034041901966e-09	-0.17885919	0.13830625	-0.9266604	0	0	0.4	4.1370355e-18
3.1600226378988775e-09	-0.1760819	0.13571583	-0.926808	0	0	0.4	4.2987964e-18
3.1700337684474297e-09	-0.17752059	0.122586966	-0.9276745	0	0	0.4	4.9487565e-18
3.1800605687940386e-09	-0.18764067	0.13889548	-0.92410225	0	0	0.4	5.310943e-18
3.190057508734573e-09	-0.1946935	0.16012381	-0.92054546	0	0	0.4	4.6789992e-18
3.2000345654633007e-09	-0.190517	0.17287531	-0.920118	0	0	0.4	5.655995e-18
3.2100436264540964e-09	-0.1983323	0.16292989	-0.91877407	0	0	0.4	4.0660944e-18
3.2200500141605445e-09	-0.190891	0.15700044	-0.91519606	0	0	0.4	4.027071e-18
3.2300172310774253e-09	-0.170988	0.16002756	-0.9135544	0	0	0.4	3.5744997e-18
3.240016919677017e-09	-0.19229035	0.1317037	-0.90863895	0	0	0.4	4.4085765e-18
3.250017431527948e-09	-0.20577785	0.1250329	-0.9073752	0	0	0.4	4.5405453e-18
3.2600163525876213e-09	-0.2140346	0.1256551	-0.901787	0	0	0.4	4.7898497e-18
3.2700543735647242e-09	-0.21374759	0.12404335	-0.9037216	0	0	0.4	4.161368e-18
3.2800098896142516e-09	-0.22821447	0.12224958	-0.9025127	0	0	0.4	4.402935e-18
3.2900573568654073e-09	-0.22353336	0.113549516	-0.9039038	0	0	0.4	4.1323193e-18
3.3000370642473874e-09	-0.22797841	0.12135365	-0.90482485	0	0	0.4	4.506369e-18
3.3100295039639734e-09	-0.21361405	0.11825701	-0.912541	0	0	0.4	4.794417e-18
3.320011123596184e-09	-0.20650129	0.11765815	-0.9140935	0	0	0.4	3.962191e-18
3.3300339481196993e-09	-0.21443808	0.109996945	-0.91571647	0	0	0.4	4.687838e-18
3.3400228797664363e-09	-0.2122594	0.09865465	-0.917465	0	0	0.4	5.709502e-18
3.35005532029791e-09	-0.21255387	0.09340559	-0.9242483	0	0	0.4	3.664814e-18
3.36001461102656e-09	-0.21153504	0.08620733	-0.9292832	0	0	0.4	4.3776052e-18
3.3700591513891613e-09	-0.21747766	0.07201826	-0.9279578	0	0	0.4	4.775552e-18
3.3800319357440366e-09	-0.21095671	0.07923809	-0.92994845	0	0	0.4	4.1380976e-18
3.3900069618572534e-09	-0.19562912	0.066389	-0.93436617	0	0	0.4	5.3861353e-18
3.400063999838669e-09	-0.20885909	0.06860804	-0.93334836	0	0	0.4	3.2243664e-18
3.410000976461294e-09	-0.21765201	0.068941005	-0.92582756	0	0	0.4	4.3821303e-18
3.4200074016288184e-09	-0.215512	0.077676244	-0.92419004	0	0	0.4	4.166638e-18
3.4300316819908294e-09	-0.20066853	0.07309979	-0.92467767	0	0	0.4	5.147803e-18
3.44005941873774e-09	-0.18771009	0.06537541	-0.9241866	0	0	0.4	4.310709e-18
3.450033558280528e-09	-0.17961575	0.07189015	-0.92474866	0	0	0.4	4.2655074e-18
3.460035925167216e-09	-0.17458557	0.06509674	-0.92448795	0	0	0.4	4.1656985e-18
3.4700338249426266e-09	-0.16775349	0.0666008	-0.9287709	0	0	0.4	4.5439637e-18
3.4800381632670706e-09	-0.17445432	0.039959155	-0.9266213	0	0	0.4	5.078921e-18
3.490058048823546e-09	-0.16923344	0.042886827	-0.9281954	0	0	0.4	4.19777e-18
3.500000986805358e-09	-0.17803752	0.04212495	-0.92662054	0	0	0.4	4.800205e-18
3.5100584523090773e-09	-0.15632972	0.04580694	-0.92613137	0	0	0.4	4.7587804e-18
3.5200519501572068e-09	-0.15206727	0.04672203	-0.93080837	0	0	0.4	3.5269997e-18
3.530015803157719e-09	-0.1501844	0.05048485	-0.92946965	0	0	0.4	4.6424676e-18
3.5400158240687227e-09	-0.15955359	0.0457036	-0.923254	0	0	0.4	3.95862e-18
3.550031683422774e-09	-0.18670344	0.041627027	-0.9155775	0	0	0.4	4.660871e-18
3.5600220900142224e-09	-0.20624405	0.047387768	-0.90832055	0	0	0.4	3.9194762e-18
3.5700149600324043e-09	-0.22820021	0.031227795	-0.9004793	0	0	0.4	4.6419118e-18
3.5800591291042107e-09	-0.2512579	0.022619797	-0.89677995	0	0	0.4	4.2171045e-18
3.5900136993133644e-09	-0.2791846	0.03169549	-0.884821	0	0	0.4	5.3179847e-18
3.6000059649806717e-09	-0.2840015	0.02874692	-0.87845135	0	0	0.4	4.8253544e-18
3.6100146961038485e-09	-0.27940968	-0.0058033573	-0.8806425	0	0	0.4	4.1612193e-18
3.6200451241534772e-09	-0.28182885	-0.033579122	-0.8813777	0	0	0.4	4.2560415e-18
3.630039442211558e-09	-0.28237376	-0.044952497	-0.8840353	0	0	0.4	4.297574e-18
3.6400210225949942e-09	-0.27635562	-0.07504881	-0.887099	0	0	0.4	4.560147e-18
3.6500184762328537e-09	-0.2612293	-0.08367591	-0.8965842	0	0	0.4	5.175134e-18
3.6600239092897804e-09	-0.23986843	-0.07953933	-0.89440536	0	0	0.4	5.3390484e-18
3.670050769932435e-09	-0.22709759	-0.103290915	-0.8983223	0	0	0.4	3.9997045e-18
3.680038552241343e-09	-0.22930561	-0.1030159	-0.8937004	0	0	0.4	4.697576e-18
3.690045979161897e-09	-0.24686001	-0.11663297	-0.8892349	0	0	0.4	5.451347e-18
3.700059876403437e-09	-0.24226041	-0.11553034	-0.89154726	0	0	0.4	5.2628407e-18
3.7100532278429964e-09	-0.2131847	-0.13259874	-0.9003023	0	0	0.4	3.975776e-18
3.7200498720264455e-09	-0.20809512	-0.13464217	-0.9006404	0	0	0.4	3.8917413e-18
3.730029590646072e-09	-0.2005257	-0.12748876	-0.9037352	0	0	0.4	4.8760428e-18
3.740028856166272e-09	-0.17309047	-0.12180522	-0.9102945	0	0	0.4	4.8775044e-18
3.750019686981143e-09	-0.16611744	-0.13162497	-0.91922075	0	0	0.4	3.669792e-18
3.760044518556804e-09	-0.15932053	-0.120869435	-0.9238341	0	0	0.4	4.5546463e-18
3.77000798873843e-09	-0.1556295	-0.15161833	-0.9247664	0	0	0.4	3.7632342e-18