# t (s)	mx ()	my ()	mz ()	B_extx (T)	B_exty (T)	B_extz (T)
0	0	0	-1	0	0	0.34
1.0019951673663454e-11	0.009794669	6.7212895e-05	-0.9748434	0	0	0.34
2.005095285231608e-11	0.018756757	-0.005485209	-0.9672282	0	0	0.34
3.0011120178197835e-11	0.029145932	-0.031241108	-0.9645208	0	0	0.34
4.0065085420019e-11	0.018793851	-0.033688467	-0.9631417	0	0	0.34
5.002825493953297e-11	-0.0010069462	-0.024772216	-0.96249026	0	0	0.34
6.004958712856822e-11	-0.015741473	-0.018898493	-0.9585131	0	0	0.34
7.001912365104987e-11	-0.013084508	-0.027898349	-0.9580291	0	0	0.34
8.005542379614474e-11	0.010101823	-0.019004019	-0.9554268	0	0	0.34
9.002891520377097e-11	0.016855221	-0.02829522	-0.9543452	0	0	0.34
1.0003182559312238e-10	0.009911096	-0.032664027	-0.9535344	0	0	0.34
1.1004587593746429e-10	0.0049208915	-0.027900785	-0.9549864	0	0	0.34
1.2005972097511725e-10	-0.0022226002	-0.03141577	-0.9542609	0	0	0.34
1.3003609670963553e-10	0.016829416	-0.028694581	-0.95749444	0	0	0.34
1.4004474149932665e-10	0.006216587	-0.031474095	-0.9609236	0	0	0.34
1.5002714690826485e-10	0.003175426	-0.045366846	-0.96158826	0	0	0.34
1.6005380575143349e-10	-0.0059864977	-0.035898205	-0.961769	0	0	0.34
1.7004807530650772e-10	-0.013747106	-0.042566966	-0.958127	0	0	0.34
1.8005399085002062e-10	-0.02788024	-0.04211113	-0.9559799	0	0	0.34
1.9003961138123892e-10	-0.030610165	-0.027108228	-0.9567155	0	0	0.34
2.0001270897346047e-10	-0.028175408	-0.019038593	-0.9577826	0	0	0.34
2.1003387343072163e-10	-0.019393273	0.0036554278	-0.9526498	0	0	0.34
2.2004562812095752e-10	-0.011466548	-0.0038453282	-0.9552342	0	0	0.34
2.300459551516681e-10	-0.021076104	-0.019688895	-0.95589036	0	0	0.34
2.4000854735545435e-10	-0.0074524535	-0.029610097	-0.95785344	0	0	0.34
2.5001961820180633e-10	-0.023121333	-0.038652077	-0.95637685	0	0	0.34
2.600075717371385e-10	-0.035514638	-0.025441194	-0.9577692	0	0	0.34
2.7000358024655795e-10	-0.043522324	-0.009139004	-0.9567759	0	0	0.34
2.800498616352266e-10	-0.039840847	-0.008088615	-0.9524493	0	0	0.34
2.900083515352113e-10	-0.016008424	-0.0025476306	-0.9524058	0	0	0.34
3.000445784043508e-10	-0.0053710258	0.005919272	-0.9511313	0	0	0.34
3.100022174461532e-10	0.0030986005	-0.008814664	-0.951902	0	0	0.34
3.2004995636458673e-10	-0.02280917	-0.020294115	-0.94880015	0	0	0.34
3.300036222739348e-10	-0.03251092	-0.015779542	-0.95110327	0	0	0.34
3.4001675545705596e-10	-0.0273365	-0.012987978	-0.9519797	0	0	0.34
3.5002541081140623e-10	-0.022852696	-0.0015070074	-0.9540272	0	0	0.34
3.600076709967584e-10	-0.015487339	0.005843397	-0.95444465	0	0	0.34
3.7004636244940163e-10	0.009387912	0.017884742	-0.95763934	0	0	0.34
3.8003987825818086e-10	0.009904066	0.012108138	-0.9566022	0	0	0.34
3.9000809886875136e-10	0.025916686	0.00929866	-0.9586843	0	0	0.34
4.000264880240063e-10	0.038821332	0.0099275075	-0.9544854	0	0	0.34
4.100274557066939e-10	0.012784818	-0.00072142144	-0.9556847	0	0	0.34
4.200553580025562e-10	0.018776888	-0.0021209428	-0.9556085	0	0	0.34
4.30019537625897e-10	0.011865602	-0.0050342977	-0.95622206	0	0	0.34
4.4004233825774426e-10	0.02760119	-0.011349672	-0.9552964	0	0	0.34
4.500610271826753e-10	0.035958134	-0.014888893	-0.9577184	0	0	0.34
4.6004032729163187e-10	0.051012438	-0.048925307	-0.9525503	0	0	0.34
4.700183339892277e-10	0.034832023	-0.08105407	-0.9510892	0	0	0.34
4.800188724361637e-10	0.0070921765	-0.082043245	-0.94893926	0	0	0.34
4.900282391974128e-10	-0.021003928	-0.069602184	-0.95143896	0	0	0.34
5.000179191902362e-10	-0.02156408	-0.070509166	-0.9480315	0	0	0.34
5.100474190736814e-10	-0.036209524	-0.046550084	-0.95019495	0	0	0.34
5.200079405195427e-10	-0.028717255	-0.04697558	-0.9463331	0	0	0.34
5.300338609883009e-10	-0.032152306	-0.055910468	-0.9444381	0	0	0.34
5.400546902344137e-10	-0.058054157	-0.05062451	-0.9442185	0	0	0.34
5.500639525580974e-10	-0.07077089	-0.032975353	-0.948984	0	0	0.34
5.600375902938893e-10	-0.0711967	0.0053679217	-0.9471387	0	0	0.34
5.700476873686845e-10	-0.07366093	0.038174786	-0.9480179	0	0	0.34
5.800504698428398e-10	-0.07494217	0.055410244	-0.94985616	0	0	0.34
5.900206997791986e-10	-0.054651745	0.07573473	-0.9509142	0	0	0.34
6.000519980756483e-10	-0.030436348	0.080355294	-0.9499305	0	0	0.34
6.100676979480568e-10	-0.025396755	0.07287016	-0.95140135	0	0	0.34
6.20042541244069e-10	-0.018717378	0.07768463	-0.94397336	0	0	0.34
6.300481716930475e-10	-0.03833385	0.0668858	-0.943987	0	0	0.34
6.400570695903944e-10	-0.03203533	0.08743596	-0.9442585	0	0	0.34
6.50025468779056e-10	-0.007556223	0.093401894	-0.9433099	0	0	0.34
6.600474354520699e-10	0.0017449938	0.0884444	-0.9431533	0	0	0.34
6.700178747179849e-10	0.029081434	0.06997378	-0.94365853	0	0	0.34
6.800404781869088e-10	0.045327436	0.06326232	-0.9413288	0	0	0.34
6.900536497186929e-10	0.040843174	0.05269934	-0.9444107	0	0	0.34
7.000209295295717e-10	0.051645447	0.066252574	-0.94241756	0	0	0.34
7.100483118868733e-10	0.06883876	0.063586906	-0.94034666	0	0	0.34
7.20011291353672e-10	0.057924546	0.05359042	-0.9426865	0	0	0.34
7.300020152064064e-10	0.058703236	0.031258706	-0.9446356	0	0	0.34
7.400528851431456e-10	0.06470685	-0.00028447446	-0.94552046	0	0	0.34
7.500006258522852e-10	0.064692155	-0.0164303	-0.94446117	0	0	0.34
7.600163604197771e-10	0.055530112	-0.022221815	-0.94388646	0	0	0.34
7.7006023307643e-10	0.04529721	-0.019311108	-0.9404769	0	0	0.34
7.800643261551342e-10	0.02696118	-0.0025645595	-0.9378088	0	0	0.34
7.900038945005086e-10	0.03423098	0.006997975	-0.93791294	0	0	0.34
8.000322191055327e-10	0.03552729	0.011282634	-0.9348086	0	0	0.34
8.100441284155773e-10	0.051018663	0.01200717	-0.93098426	0	0	0.34
8.20021978439e-10	0.06312264	0.0062283482	-0.9264498	0	0	0.34
8.300041570368816e-10	0.0724817	0.00022167525	-0.9308912	0	0	0.34
8.400174297768265e-10	0.06437907	-0.02745911	-0.9339619	0	0	0.34
8.500448669548659e-10	0.037204713	-0.022364438	-0.93381774	0	0	0.34
8.600660985570243e-10	0.009884586	-0.011117556	-0.9400206	0	0	0.34
8.700554497163001e-10	0.008788686	0.0047565387	-0.9433219	0	0	0.34
8.800054327759359e-10	-0.0010745279	-0.0062022186	-0.9482441	0	0	0.34
8.900322021096069e-10	-0.0018269558	-0.009134114	-0.94953066	0	0	0.34
9.00019260717482e-10	-0.0026295837	-0.003828448	-0.9477279	0	0	0.34
9.100284642987814e-10	0.0026839683	-0.00010251529	-0.9506339	0	0	0.34
9.200635150906678e-10	-0.008328036	-0.0084013725	-0.9474104	0	0	0.34
9.300236082508452e-10	-0.002825938	-0.0008846316	-0.9466133	0	0	0.34
9.400105424716662e-10	-0.010365249	0.01199112	-0.94440943	0	0	0.34
9.500040248399251e-10	-0.025412103	0.02233167	-0.94710296	0	0	0.34
9.600084520863367e-10	-0.018569523	0.020126598	-0.9483554	0	0	0.34
9.700453329782564e-10	-0.01591936	0.015140889	-0.9486475	0	0	0.34
9.80039135488612e-10	-0.0049124984	0.005635884	-0.9523056	0	0	0.34
9.900239787822925e-10	0.006143086	-0.008998551	-0.95258343	0	0	0.34
1.00002713779735e-09	0.0051179766	-0.017271293	-0.9519088	0	0	0.34
1.0100177446761962e-09	-0.010446828	-0.016748404	-0.95416105	0	0	0.34
1.0200263948281681e-09	-0.0006500958	-0.01459366	-0.9522306	0	0	0.34
1.0300127532860028e-09	0.010258618	-0.008610707	-0.9482102	0	0	0.34
1.0400211195906928e-09	0.016594853	-0.010133388	-0.9458128	0	0	0.34
1.0500472813784334e-09	0.02322118	-0.025522862	-0.94338584	0	0	0.34
1.0600218917275694e-09	-0.0039895414	-0.049571835	-0.94265825	0	0	0.34
1.0700593742514027e-09	-0.04027353	-0.059052255	-0.94411117	0	0	0.34
1.080055406888952e-09	-0.05305326	-0.04158702	-0.95059067	0	0	0.34
1.0900551920464582e-09	-0.058849033	-0.016654758	-0.94513947	0	0	0.34
1.100004424881161e-09	-0.04954412	-0.015103434	-0.94949025	0	0	0.34
1.11005291866885e-09	-0.053838983	0.0037204598	-0.9475299	0	0	0.34
1.120009007711702e-09	-0.043241967	0.013122909	-0.94901186	0	0	0.34
1.1300336790947682e-09	-0.047689203	0.019290913	-0.9482175	0	0	0.34
1.1400138199896486e-09	-0.033944044	0.018734777	-0.9490818	0	0	0.34
1.150054164738108e-09	-0.030470185	0.022544945	-0.95035416	0	0	0.34
1.1600275808177828e-09	-0.02071494	-0.0029880307	-0.9577429	0	0	0.34
1.1700284436540447e-09	-0.019395089	0.00026140542	-0.95809877	0	0	0.34
1.1800625130474403e-09	-0.012316006	-0.0010376822	-0.95756876	0	0	0.34
1.1900325704940088e-09	-0.030206494	-0.0034808102	-0.9565716	0	0	0.34
1.2000063208151323e-09	-0.037385054	0.0051277378	-0.9548521	0	0	0.34
1.2100422171667938e-09	-0.02560395	0.017167773	-0.95226556	0	0	0.34
1.2200146685000975e-09	0.0011205627	0.022272352	-0.9519533	0	0	0.34
1.2300385033609363e-09	0.0036062608	0.011352504	-0.951536	0	0	0.34
1.240010500048374e-09	0.006161375	-0.00065470254	-0.9517673	0	0	0.34
1.2500170908737824e-09	0.014010284	-0.013143639	-0.9536611	0	0	0.34
1.2600562499990648e-09	0.0036159384	0.0004440552	-0.9538559	0	0	0.34
1.270014439975449e-09	-0.01249665	-0.0017619885	-0.95249	0	0	0.34
1.2800586853155302e-09	-0.015817525	0.022345383	-0.94967514	0	0	0.34
1.290018605216748e-09	-0.0014891915	0.03278937	-0.94602585	0	0	0.34
1.3000358762841037e-09	-0.0020568008	0.031207517	-0.94518876	0	0	0.34
1.3100185985874416e-09	-0.0054546213	0.03317703	-0.9481352	0	0	0.34
1.320006799158834e-09	0.0025990421	0.019366749	-0.9491006	0	0	0.34
1.3300020967233684e-09	-0.009574072	0.0014165281	-0.951729	0	0	0.34
1.3400047559485405e-09	-0.0072820294	0.00014440766	-0.95331424	0	0	0.34
1.35000364126252e-09	0.00076414214	-0.0018524512	-0.9561209	0	0	0.34
1.3600212972335158e-09	-0.005226725	-0.0001651125	-0.95477444	0	0	0.34
1.3700333339953051e-09	-0.007276794	0.00042649911	-0.9521492	0	0	0.34
1.3800406828382701e-09	-0.0023028392	0.01568714	-0.95287013	0	0	0.34
1.390044937568917e-09	0.008847673	0.006711516	-0.9542889	0	0	0.34
1.4000525864699634e-09	0.021849882	0.0153669	-0.9553827	0	0	0.34
1.410003398059706e-09	0.0216627	0.0029538113	-0.95288455	0	0	0.34
1.4200160270575177e-09	0.016906226	0.0061522806	-0.9534975	0	0	0.34
1.4300435954058884e-09	0.02033363	0.0025690466	-0.9556261	0	0	0.34
1.4400385762600902e-09	0.014732673	-0.00060001615	-0.9526207	0	0	0.34
1.4500314131850733e-09	-0.0020128964	-0.0020560408	-0.955107	0	0	0.34
1.4600285692618642e-09	0.0027617915	-0.006197403	-0.9539771	0	0	0.34
1.4700515658713975e-09	0.020194413	-0.010650297	-0.9522795	0	0	0.34
1.4800069487229225e-09	0.025934102	-0.009930481	-0.95321983	0	0	0.34
1.490038618666733e-09	0.028161922	-0.0020097524	-0.95175517	0	0	0.34
1.5000544681051419e-09	0.037046786	-0.028248345	-0.9495812	0	0	0.34
1.510009793814693e-09	0.048130985	-0.029311627	-0.94883406	0	0	0.34
1.5200158828249359e-09	0.048541795	-0.028178213	-0.9457909	0	0	0.34
1.5300535548945863e-09	0.031130236	-0.025398381	-0.94941103	0	0	0.34
1.5400291726430655e-09	0.011746961	-0.00588478	-0.95305735	0	0	0.34
1.550010920617307e-09	0.024545914	0.01977229	-0.95371205	0	0	0.34
1.5600195186949684e-09	0.02048291	0.0023567565	-0.95328915	0	0	0.34
1.5700615899303862e-09	0.027102869	-0.012792919	-0.9527799	0	0	0.34
1.5800014432805498e-09	0.019369744	-0.023572545	-0.9570437	0	0	0.34
1.5900330219529907e-09	0.014677665	-0.027617557	-0.9528449	0	0	0.34
1.6000020061606376e-09	0.005878392	-0.02783629	-0.9472942	0	0	0.34
1.6100503312133175e-09	-0.0043687094	-0.032849625	-0.95014757	0	0	0.34
1.6200344895438463e-09	-0.012699348	-0.011190905	-0.9529932	0	0	0.34
1.6300358136472453e-09	-0.0069882716	0.0041807685	-0.9533914	0	0	0.34
1.6400458824009939e-09	-0.010518013	0.017668039	-0.95369613	0	0	0.34
1.6500538307321775e-09	-0.0046919063	0.03610786	-0.95414335	0	0	0.34
1.660022079452875e-09	-0.006893594	0.029359551	-0.95240116	0	0	0.34
1.6700367387489662e-09	-0.023186326	0.02224863	-0.9529512	0	0	0.34
1.6800124453437565e-09	-0.013250455	0.024986498	-0.9526283	0	0	0.34
1.6900044643138368e-09	-0.02173079	0.031905066	-0.951695	0	0	0.34
1.7000532624429418e-09	-0.033122968	0.030483706	-0.9486783	0	0	0.34
1.7100215919550775e-09	-0.009014715	0.045707025	-0.9498763	0	0	0.34
1.7200403203177612e-09	0.01255049	0.05265155	-0.9525029	0	0	0.34
1.7300229638390572e-09	0.029048102	0.047435593	-0.95224196	0	0	0.34
1.7400191749010265e-09	0.029912919	0.061424475	-0.94735324	0	0	0.34
1.7500549794470368e-09	0.037207246	0.053801477	-0.95318496	0	0	0.34
1.760058458362334e-09	0.01831857	0.05617045	-0.95749307	0	0	0.34
1.7700179878768416e-09	0.027676892	0.047931492	-0.95814145	0	0	0.34
1.7800522147901355e-09	0.02312178	0.01876	-0.955638	0	0	0.34
1.7900531948052526e-09	0.013838655	0.01738409	-0.9538048	0	0	0.34
1.8000456938294798e-09	0.021666793	0.014059976	-0.95435065	0	0	0.34
1.8100454859354458e-09	0.005630459	0.0018721792	-0.9592941	0	0	0.34
1.8200434183004743e-09	0.0037762423	0.007615309	-0.9546649	0	0	0.34
1.8300206675541104e-09	0.016069649	0.016506234	-0.9552863	0	0	0.34
1.8400445354513813e-09	0.010631273	0.015904322	-0.9549776	0	0	0.34
1.8500188513185754e-09	0.026101142	0.005273444	-0.9563245	0	0	0.34
1.8600550037728183e-09	0.025360523	-0.0008758806	-0.95774955	0	0	0.34
1.870003341855716e-09	0.023725215	0.002445363	-0.9605145	0	0	0.34
1.8800363068668735e-09	0.016570166	0.00022613592	-0.96041644	0	0	0.34
1.890055602310776e-09	0.017457448	-0.008520488	-0.95803285	0	0	0.34
1.900020724732946e-09	0.01709403	-0.0025732676	-0.95709825	0	0	0.34
1.9100409830581198e-09	0.021833066	-0.008908719	-0.9525328	0	0	0.34
1.9200015111509998e-09	0.028549317	-0.022262445	-0.9514725	0	0	0.34
1.930035851518671e-09	0.01889529	-0.03626848	-0.9551066	0	0	0.34
1.94005948596909e-09	0.027818821	-0.05876887	-0.9567778	0	0	0.34
1.9500157878119343e-09	0.017177723	-0.06296778	-0.9522383	0	0	0.34
1.960013838116422e-09	0.01345556	-0.076470934	-0.95329094	0	0	0.34
1.9700130641512033e-09	0.007605132	-0.065243386	-0.95936185	0	0	0.34
1.9800337165690325e-09	-0.0024896325	-0.04539803	-0.9577196	0	0	0.34
1.990023512175473e-09	0.0020043815	-0.041796844	-0.95890653	0	0	0.34
2.0000261950920924e-09	-0.020185456	-0.025729368	-0.95895475	0	0	0.34
2.0100016706759746e-09	-0.019156365	-0.013018508	-0.96016073	0	0	0.34
2.020057909752591e-09	-0.03329713	-0.028725756	-0.9551449	0	0	0.34
2.0300004225424145e-09	-0.062225755	-0.027710706	-0.95746315	0	0	0.34
2.0400120408630077e-09	-0.06485721	-0.022337938	-0.957147	0	0	0.34
2.050007982483593e-09	-0.06809407	-0.009515509	-0.95554763	0	0	0.34
2.0600370070193944e-09	-0.058876075	0.0111544235	-0.95919687	0	0	0.34
2.0700504151405514e-09	-0.07138587	0.0135446945	-0.95481545	0	0	0.34
2.0800453468823656e-09	-0.06952758	0.02220466	-0.9546229	0	0	0.34
2.0900258855397004e-09	-0.06533936	0.04684713	-0.9516662	0	0	0.34
2.100009244894242e-09	-0.06722419	0.049630243	-0.95266503	0	0	0.34
2.110051507046148e-09	-0.058613762	0.036133505	-0.9578474	0	0	0.34
2.120030233554358e-09	-0.066748165	0.035497528	-0.9604895	0	0	0.34
2.1300199469421453e-09	-0.058632124	0.0503718	-0.9589273	0	0	0.34
2.1400322559845504e-09	-0.048395157	0.059580967	-0.95815784	0	0	0.34
2.150056284638367e-09	-0.038507994	0.06365807	-0.958976	0	0	0.34
2.1600383908489263e-09	-0.041132852	0.07158103	-0.9574011	0	0	0.34
2.1700239603126153e-09	-0.03065918	0.070150964	-0.95685875	0	0	0.34
2.1800084867914407e-09	-0.022038484	0.07087484	-0.9566513	0	0	0.34
2.190037219219281e-09	0.003494125	0.07147143	-0.95808524	0	0	0.34
2.2000351083756668e-09	0.0005326729	0.06866415	-0.9548508	0	0	0.34
2.210046753141167e-09	0.0051368563	0.0631326	-0.95174146	0	0	0.34
2.2200002082080407e-09	0.022500377	0.07652518	-0.9504169	0	0	0.34
2.230035422646055e-09	0.027685165	0.079877734	-0.9496386	0	0	0.34
2.2400110960230024e-09	0.025827091	0.067168266	-0.95150036	0	0	0.34
2.2500316257890294e-09	0.027394878	0.058579553	-0.95581996	0	0	0.34
2.2600635199496124e-09	0.040983655	0.050891895	-0.95150757	0	0	0.34
2.270003171916364e-09	0.039640784	0.04481881	-0.94962347	0	0	0.34
2.2800211865944018e-09	0.051112123	0.04744343	-0.95064074	0	0	0.34
2.2900381329727513e-09	0.0752391	0.04888447	-0.9519589	0	0	0.34
2.3000393128472734e-09	0.07473509	0.042354517	-0.9546901	0	0	0.34
2.3100619300094934e-09	0.089198716	0.022353433	-0.95252186	0	0	0.34
2.3200540985214566e-09	0.09232486	0.00725019	-0.9525679	0	0	0.34
2.3300546946466435e-09	0.08788013	-0.011701553	-0.9534386	0	0	0.34
2.340050610068868e-09	0.08087353	-0.0016190066	-0.9506755	0	0	0.34
2.350000808832946e-09	0.07900843	-0.036653068	-0.95059514	0	0	0.34
2.3600045229164316e-09	0.06781862	-0.032990143	-0.95562744	0	0	0.34
2.3700466046025262e-09	0.07379445	-0.050860327	-0.94952184	0	0	0.34
2.380029636770243e-09	0.05818659	-0.060618315	-0.95016915	0	0	0.34
2.3900129033679016e-09	0.03947415	-0.062142882	-0.9492905	0	0	0.34
2.4000575232063074e-09	0.02377287	-0.048948966	-0.94446725	0	0	0.34
2.410043566057123e-09	0.028320594	-0.04108258	-0.94729865	0	0	0.34
2.4200564680080976e-09	0.026743278	-0.057959154	-0.9424251	0	0	0.34
2.430032581179912e-09	0.014407389	-0.06698251	-0.9444657	0	0	0.34
2.440021606967378e-09	0.0063042273	-0.087480545	-0.94346225	0	0	0.34
2.4500287497913314e-09	-0.012415576	-0.08785734	-0.94688225	0	0	0.34
2.4600419329275645e-09	-0.016788347	-0.069479264	-0.9511525	0	0	0.34
2.470001407166006e-09	-0.034609776	-0.04669858	-0.9525336	0	0	0.34
2.480011917335323e-09	-0.03656584	-0.051944286	-0.9564902	0	0	0.34
2.490002005429194e-09	-0.054799102	-0.04239307	-0.9544523	0	0	0.34
2.5000450600114095e-09	-0.060877457	-0.024601622	-0.9532399	0	0	0.34
2.510038702666909e-09	-0.044728093	-0.020158531	-0.95455223	0	0	0.34
2.5200488402028044e-09	-0.032793134	-0.012850864	-0.9553977	0	0	0.34
2.5300063536121924e-09	-0.04261684	0.00896339	-0.9516486	0	0	0.34
2.5400416528372088e-09	-0.06618071	0.008209327	-0.95076716	0	0	0.34
2.5500500934818283e-09	-0.059921972	0.017695244	-0.95114434	0	0	0.34
2.560018112087682e-09	-0.060822472	0.044948038	-0.950981	0	0	0.34
2.570027103339946e-09	-0.058633465	0.054803763	-0.95265204	0	0	0.34
2.5800110958950174e-09	-0.06610442	0.067430705	-0.94981855	0	0	0.34
2.590009177684757e-09	-0.038115166	0.07121915	-0.9501719	0	0	0.34
2.6000287946857262e-09	-0.020424033	0.070152	-0.9485984	0	0	0.34
2.6100041646033364e-09	-0.003937038	0.07752299	-0.9465415	0	0	0.34
2.6200660487143434e-09	0.0055612777	0.0900776	-0.9461481	0	0	0.34
2.6300314440863228e-09	0.022580076	0.08376969	-0.95129347	0	0	0.34
2.6400027838124696e-09	0.055429056	0.08392941	-0.9532465	0	0	0.34
2.650000652770775e-09	0.06399665	0.07042076	-0.9540547	0	0	0.34
2.6600003876139464e-09	0.06749413	0.070104875	-0.95612025	0	0	0.34
2.670023365094689e-09	0.08388433	0.057924457	-0.95055854	0	0	0.34
2.6800172680402293e-09	0.088443436	0.040615212	-0.95075834	0	0	0.34
2.690063119892631e-09	0.1022138	0.029090298	-0.9479802	0	0	0.34
2.7000001092791593e-09	0.103467785	0.02176962	-0.9460314	0	0	0.34
2.710034237612094e-09	0.100010544	0.0053097107	-0.9452949	0	0	0.34
2.7200258026800847e-09	0.08591093	-0.005266981	-0.9477703	0	0	0.34
2.7300206586103143e-09	0.08973587	-0.01143722	-0.94583285	0	0	0.34
2.7400138813391982e-09	0.07374468	-0.015450015	-0.94692075	0	0	0.34
2.7500427863426234e-09	0.07006442	-0.03180517	-0.9479929	0	0	0.34
2.760027622302571e-09	0.05031822	-0.04393051	-0.9520256	0	0	0.34
2.7700407360709e-09	0.05365091	-0.053160727	-0.95159143	0	0	0.34
2.7800009711096648e-09	0.038211476	-0.08073209	-0.948811	0	0	0.34
2.7900218777201367e-09	0.020158796	-0.08630728	-0.9490945	0	0	0.34
2.8000577299420675e-09	0.014242263	-0.072554804	-0.9502903	0	0	0.34
2.810020757554938e-09	0.0076614916	-0.07752661	-0.9484981	0	0	0.34
2.820025699146732e-09	0.014562946	-0.08912645	-0.9472959	0	0	0.34
2.8300208624775737e-09	0.012159432	-0.099219374	-0.9489132	0	0	0.34
2.8400613565386674e-09	-0.0038536505	-0.11455748	-0.94901097	0	0	0.34
2.8500624430148505e-09	-0.008541022	-0.09700069	-0.9523269	0	0	0.34
2.8600042697517654e-09	-0.014727974	-0.12015325	-0.95256644	0	0	0.34
2.870033321810395e-09	-0.05074603	-0.123715945	-0.94909036	0	0	0.34
2.8800348565246778e-09	-0.049076673	-0.11585839	-0.95118564	0	0	0.34
2.8900434731613594e-09	-0.057802293	-0.11149947	-0.95360684	0	0	0.34
2.90006515021713e-09	-0.063398354	-0.10005637	-0.955386	0	0	0.34
2.910065763144819e-09	-0.06585548	-0.0982038	-0.95505244	0	0	0.34
2.9200201194485916e-09	-0.060277384	-0.07173597	-0.9530029	0	0	0.34
2.9300204084282606e-09	-0.0645366	-0.06769277	-0.951423	0	0	0.34
2.9400467370567784e-09	-0.058663227	-0.04940732	-0.9521851	0	0	0.34
2.950031071742042e-09	-0.056983627	-0.050051037	-0.9510588	0	0	0.34
2.9600605375392983e-09	-0.0779624	-0.034929156	-0.95424616	0	0	0.34
2.9700323046119714e-09	-0.09920549	-0.026121816	-0.9497765	0	0	0.34
2.9800213026336085e-09	-0.10326363	-0.010085429	-0.94763935	0	0	0.34
2.990063872059969e-09	-0.08422363	0.013332439	-0.94971704	0	0	0.34
3.0000245566254304e-09	-0.09730322	0.018570237	-0.94930285	0	0	0.34
3.010029236976792e-09	-0.05364839	0.032677278	-0.9546629	0	0	0.34
3.0200258629478423e-09	-0.061922323	0.048862543	-0.95212233	0	0	0.34
3.0300218204820206e-09	-0.05773008	0.068431094	-0.9548096	0	0	0.34
3.040023853023446e-09	-0.04296981	0.0817161	-0.95462924	0	0	0.34
3.05001268169681e-09	-0.044224933	0.09202788	-0.95198554	0	0	0.34
3.0600200369237167e-09	-0.03682524	0.12199865	-0.94614565	0	0	0.34
3.0700323248462266e-09	-0.027521413	0.11672397	-0.9462395	0	0	0.34
3.0800191978744565e-09	-0.0078112176	0.116313465	-0.9429812	0	0	0.34
3.090048769715706e-09	0.010194009	0.10276777	-0.94817543	0	0	0.34
3.100043459431132e-09	0.01239499	0.08132246	-0.95172197	0	0	0.34
3.110020365339566e-09	0.029771056	0.10117513	-0.94801325	0	0	0.34
3.1200046855917514e-09	0.051133968	0.09497571	-0.9483414	0	0	0.34
3.1300457733807024e-09	0.057512358	0.091362394	-0.9526984	0	0	0.34
3.1400219096783038e-09	0.07799003	0.06835513	-0.9499979	0	0	0.34
3.1500269246958854e-09	0.08698774	0.0432155	-0.95316696	0	0	0.34
3.1600091137021896e-09	0.096116975	0.028163496	-0.94887847	0	0	0.34
3.170015873946157e-09	0.07995153	0.01992099	-0.94436616	0	0	0.34
3.1800037037921468e-09	0.07545366	0.0012998965	-0.9475216	0	0	0.34
3.190026639488395e-09	0.06327663	0.002914149	-0.9496857	0	0	0.34
3.200059079316106e-09	0.0734373	-0.015277378	-0.94679236	0	0	0.34
3.210054177102169e-09	0.07944568	-0.03297347	-0.9471406	0	0	0.34
3.2200113434569575e-09	0.056124214	-0.047620505	-0.9442366	0	0	0.34
3.2300066087452544e-09	0.06064435	-0.0520059	-0.94273466	0	0	0.34
3.240059821520235e-09	0.04046152	-0.07424243	-0.94198734	0	0	0.34
3.250057140350861e-09	0.034837537	-0.09121489	-0.94293797	0	0	0.34
3.2600575545557126e-09	0.01512083	-0.09385388	-0.9423927	0	0	0.34
3.2700426251492048e-09	-0.0039064754	-0.095930934	-0.9432635	0	0	0.34
3.280017871287859e-09	-0.008376148	-0.10120044	-0.9461691	0	0	0.34
3.290032186410539e-09	-0.023959095	-0.09906215	-0.9458006	0	0	0.34
3.300037162577357e-09	-0.047567505	-0.09301803	-0.9467321	0	0	0.34
3.3100286669975255e-09	-0.058806263	-0.09430958	-0.94428504	0	0	0.34
3.3200564216948492e-09	-0.040031504	-0.07228486	-0.9465539	0	0	0.34
3.330017860397885e-09	-0.055709995	-0.06361308	-0.9415414	0	0	0.34
3.340060890316597e-09	-0.06251656	-0.05635475	-0.94422185	0	0	0.34
3.3500488455334245e-09	-0.086448304	-0.051101863	-0.94269687	0	0	0.34
3.3600179743020208e-09	-0.09914192	-0.03600791	-0.9348184	0	0	0.34
3.3700350008833674e-09	-0.113201685	-0.03146591	-0.93214816	0	0	0.34
3.3800387470907692e-09	-0.12542614	-0.01128702	-0.93196255	0	0	0.34
3.390006361994414e-09	-0.1164313	0.0023834764	-0.93446374	0	0	0.34
3.4000223324454084e-09	-0.1074427	-0.0022967039	-0.9316985	0	0	0.34
3.4100281613467974e-09	-0.11174778	-0.0016007001	-0.92862135	0	0	0.34
3.420049591100128e-09	-0.10409931	-0.018828815	-0.9280631	0	0	0.34
3.4300148736510567e-09	-0.106581755	-0.0045940136	-0.9294238	0	0	0.34
3.440032120297213e-09	-0.09013752	0.010207956	-0.93475807	0	0	0.34
3.4500651675165085e-09	-0.08451238	0.01684685	-0.9370351	0	0	0.34
3.460003289733265e-09	-0.07653341	0.036259394	-0.9371015	0	0	0.34
3.470036413671306e-09	-0.060205568	0.0441813	-0.93202263	0	0	0.34
3.480033436176848e-09	-0.062453914	0.058502346	-0.93200606	0	0	0.34
3.4900385094630993e-09	-0.03962999	0.03761053	-0.93455136	0	0	0.34
3.5000298788640567e-09	-0.035275012	0.03205906	-0.9381683	0	0	0.34
3.510046627461926e-09	-0.030650262	0.021981502	-0.938433	0	0	0.34
3.5200517001651576e-09	-0.034267098	0.022796668	-0.9420308	0	0	0.34
3.530061622864744e-09	-0.020163404	0.048160594	-0.9412407	0	0	0.34
3.5400203746068304e-09	-0.013035086	0.048000026	-0.9385126	0	0	0.34
3.550014314105428e-09	0.023540858	0.04303637	-0.94229984	0	0	0.34
3.5600187209347815e-09	0.031989973	0.040192742	-0.94020236	0	0	0.34
3.570061662404422e-09	0.04978067	0.042036287	-0.93959564	0	0	0.34
3.580056910673027e-09	0.05387728	0.019574516	-0.9416515	0	0	0.34
3.5900461937562873e-09	0.06188727	-0.017465126	-0.9393249	0	0	0.34
3.6000297367140686e-09	0.0631511	-0.015279373	-0.940529	0	0	0.34
3.6100161766024188e-09	0.05473488	-0.017477466	-0.94111353	0	0	0.34
3.6200027031520664e-09	0.057208527	-0.017333085	-0.9443221	0	0	0.34
3.6300050349371714e-09	0.05549237	-0.016470442	-0.94752824	0	0	0.34
3.6400280206890027e-09	0.052946772	-0.016484287	-0.94271094	0	0	0.34
3.650048691079817e-09	0.039400384	-0.02064739	-0.9425899	0	0	0.34
3.6600188378537576e-09	0.04145394	-0.041002613	-0.94153523	0	0	0.34
3.670025226237537e-09	0.010800308	-0.056488276	-0.9474194	0	0	0.34
3.6800562652637937e-09	0.009187961	-0.06087055	-0.94541043	0	0	0.34
3.690046398329073e-09	-0.015817454	-0.062290214	-0.9417967	0	0	0.34
3.700061294224223e-09	-0.00825356	-0.060645033	-0.9425028	0	0	0.34
3.7100341059427632e-09	-0.012757024	-0.05353266	-0.9457572	0	0	0.34
3.720040081900411e-09	0.0061062262	-0.059951548	-0.9416849	0	0	0.34
3.730025778681884e-09	0.002739676	-0.0746454	-0.9393837	0	0	0.34
3.740010060059581e-09	-0.0048318272	-0.08989769	-0.93602085	0	0	0.34
3.7500327193001695e-09	-0.02590104	-0.097309604	-0.94256127	0	0	0.34
3.76000603336266e-09	-0.039474122	-0.087454446	-0.9439121	0	0	0.34
3.770023550179334e-09	-0.05481182	-0.06657621	-0.9419523	0	0	0.34
3.780010469886386e-09	-0.05893518	-0.06087848	-0.9410293	0	0	0.34
3.7900593371093e-09	-0.051199853	-0.061687674	-0.9374379	0	0	0.34
3.800018579373088e-09	-0.0585765	-0.062420823	-0.944131	0	0	0.34
3.810034555840818e-09	-0.06045417	-0.04962522	-0.94407916	0	0	0.34
3.820017584520888e-09	-0.075347796	-0.051124014	-0.9422188	0	0	0.34
3.8300180340714075e-09	-0.07311242	-0.05273626	-0.94768167	0	0	0.34
3.840000661102703e-09	-0.06552967	-0.023506612	-0.943691	0	0	0.34
3.850034361140963e-09	-0.06930943	-0.0019042104	-0.94704175	0	0	0.34
3.860024039283456e-09	-0.07101905	0.02368461	-0.9413611	0	0	0.34
3.8700005950375295e-09	-0.06961458	0.038528387	-0.9396038	0	0	0.34
3.880008515098379e-09	-0.046281327	0.052946355	-0.94162816	0	0	0.34
3.890053589391369e-09	-0.013788646	0.04100053	-0.93974745	0	0	0.34
3.900056406321011e-09	-0.013336217	0.029432205	-0.9370556	0	0	0.34
3.910047751879453e-09	-0.007141827	0.023101786	-0.93296266	0	0	0.34
3.920033092732078e-09	-0.0012701274	0.0066785226	-0.92776036	0	0	0.34
3.93005189375219e-09	-0.012759835	0.019762786	-0.92444134	0	0	0.34
3.940021889689988e-09	-0.004495796	0.030735238	-0.9256803	0	0	0.34
3.950034956532427e-09	0.009114674	0.0354834	-0.93281674	0	0	0.34
3.960058567746961e-09	0.011167108	0.044434037	-0.9342602	0	0	0.34
3.970032696917015e-09	0.007271447	0.044738837	-0.93632245	0	0	0.34
3.9800292539186285e-09	0.006637108	0.03619255	-0.9361388	0	0	0.34
3.990014448596166e-09	-0.009898905	0.029487878	-0.9316175	0	0	0.34
4.000057583395528e-09	0.00092378154	0.049075264	-0.9263435	0	0	0.34
4.010026155715414e-09	-0.010856755	0.02986588	-0.9213421	0	0	0.34
4.020032664619538e-09	-0.014793896	0.024523854	-0.92059386	0	0	0.34
4.030021024303823e-09	-0.026399866	0.017731467	-0.9215605	0	0	0.34
4.04005862686916e-09	-0.016282989	0.013472256	-0.92835575	0	0	0.34
4.0500409327051346e-09	-0.03449069	0.0010310347	-0.9350317	0	0	0.34
4.060015210934622e-09	-0.04610844	-0.0046907035	-0.93741024	0	0	0.34
4.070006484915806e-09	-0.037164893	-0.001052901	-0.93678683	0	0	0.34
4.080006470334653e-09	-0.063658565	0.011877325	-0.93467945	0	0	0.34
4.090047102940062e-09	-0.05749142	0.014878313	-0.9349213	0	0	0.34
4.100029810611068e-09	-0.056423802	0.03319758	-0.92111236	0	0	0.34
4.110002860054006e-09	-0.045994744	0.04281883	-0.9180865	0	0	0.34
4.12001340726127e-09	-0.044390783	0.02602735	-0.91177744	0	0	0.34
4.130040218563711e-09	-0.03323513	0.039337773	-0.9189543	0	0	0.34
4.140058062976496e-09	-0.026435154	0.041523397	-0.92485595	0	0	0.34
4.150038968713015e-09	-0.0072292965	0.03527313	-0.9246682	0	0	0.34
4.160058326691005e-09	-0.03987429	0.039172005	-0.9275319	0	0	0.34
4.1700650035742395e-09	-0.029126275	0.044446934	-0.93059385	0	0	0.34
4.1800285722410256e-09	-0.0110203875	0.056899793	-0.9361702	0	0	0.34
4.190045554259406e-09	0.004183769	0.05372614	-0.92752105	0	0	0.34
4.200050470581214e-09	0.031658057	0.03573984	-0.92334694	0	0	0.34
4.210021113513455e-09	0.038526382	0.03022425	-0.924761	0	0	0.34
4.220021622747456e-09	0.036360465	0.013321	-0.92556876	0	0	0.34
4.230049798140165e-09	0.018460132	-0.010291816	-0.93111455	0	0	0.34
4.240029392488218e-09	0.01382049	-0.006225167	-0.9364203	0	0	0.34
4.250003669955441e-09	0.0015522792	-0.01740135	-0.936621	0	0	0.34
4.2600316499399e-09	-0.001768953	-0.032729197	-0.9347567	0	0	0.34
4.270054015020846e-09	0.015658708	-0.038830988	-0.9392011	0	0	0.34
4.2800203116858005e-09	0.012592896	-0.041360207	-0.94283706	0	0	0.34
4.2900568743521706e-09	0.018662957	-0.031264756	-0.9395853	0	0	0.34
4.300040492581493e-09	0.014102447	-0.030240493	-0.9402101	0	0	0.34
4.31001169812117e-09	0.01945993	-0.026430564	-0.9437075	0	0	0.34
4.320010634220716e-09	0.007896585	-0.02524632	-0.9434608	0	0	0.34
4.330038553781843e-09	-0.00093157537	-0.038240366	-0.94388545	0	0	0.34
4.340001988790155e-09	-0.03340942	-0.030424202	-0.94008064	0	0	0.34
4.350027128918895e-09	-0.05602413	-0.015225591	-0.9382799	0	0	0.34
4.360010647753045e-09	-0.047733665	-0.010358059	-0.93679315	0	0	0.34
4.3700203420806285e-09	-0.04391084	-0.005314182	-0.9416316	0	0	0.34
4.38002565776512e-09	-0.036990035	-0.00024471217	-0.9395178	0	0	0.34
4.390004096211033e-09	-0.027195482	-0.0116007915	-0.9377141	0	0	0.34
4.400032291314562e-09	-0.018510947	-0.018299585	-0.9372504	0	0	0.34
4.410019887066292e-09	-0.033072308	0.005547885	-0.9403073	0	0	0.34
4.420052990961702e-09	-0.040332716	0.0124355	-0.93768823	0	0	0.34
4.4300383053461605e-09	-0.049754288	0.041053377	-0.93586594	0	0	0.34