# t (s)	mx ()	my ()	mz ()	B_extx (T)	B_exty (T)	B_extz (T)	E_total (J)
0	0	0	-1	0	0	0.41	1.3250005e-18
1.0061176156435251e-11	0.0002662143	-0.0053473143	-0.9774687	0	0	0.41	4.4962167e-18
2.002573841007926e-11	0.0035841106	-0.020484036	-0.9687936	0	0	0.41	3.574692e-18
3.001992604699991e-11	0.0038126989	-0.019081391	-0.96405643	0	0	0.41	4.816815e-18
4.000289855189284e-11	0.036880743	-0.026826158	-0.9621462	0	0	0.41	3.6886705e-18
5.0063602062990396e-11	0.024332782	-0.049363405	-0.9613464	0	0	0.41	4.6828473e-18
6.003519415449698e-11	0.018345844	-0.048057813	-0.96077305	0	0	0.41	5.302274e-18
7.004738331302259e-11	0.025325224	-0.073599726	-0.9579729	0	0	0.41	4.634824e-18
8.003346480612513e-11	0.015962921	-0.071715266	-0.95861727	0	0	0.41	4.578362e-18
9.003352553443194e-11	0.018903837	-0.0686478	-0.9569889	0	0	0.41	5.755625e-18
1.000319317960592e-10	0.0107616475	-0.058928993	-0.9558623	0	0	0.41	4.2217847e-18
1.1001849508316557e-10	0.0110201035	-0.045221534	-0.95456535	0	0	0.41	3.9648293e-18
1.2006385773560817e-10	0.014853689	-0.046691265	-0.9560774	0	0	0.41	4.2515198e-18
1.300473332816883e-10	0.028180309	-0.057699174	-0.9562477	0	0	0.41	4.5351443e-18
1.4003114913312628e-10	0.035928175	-0.069331035	-0.9517111	0	0	0.41	4.5793376e-18
1.5002525370234106e-10	0.030461753	-0.07895995	-0.9481046	0	0	0.41	4.611384e-18
1.600482378488799e-10	0.033219174	-0.09437355	-0.9490612	0	0	0.41	5.8028867e-18
1.7002736732659396e-10	0.021309504	-0.115871	-0.9497585	0	0	0.41	5.0474863e-18
1.8000195035174162e-10	0.032639183	-0.093465015	-0.9481873	0	0	0.41	4.8216296e-18
1.9000770202435303e-10	0.044519734	-0.093953684	-0.9502607	0	0	0.41	5.088327e-18
2.000290457880757e-10	0.044350266	-0.083152704	-0.9512822	0	0	0.41	5.3057664e-18
2.100429299002232e-10	0.034521863	-0.07616868	-0.9513501	0	0	0.41	4.057471e-18
2.200615652424602e-10	0.035766974	-0.06862812	-0.9513334	0	0	0.41	4.352872e-18
2.3002023232713246e-10	0.04725747	-0.060136635	-0.95176214	0	0	0.41	4.8459727e-18
2.400403427763042e-10	0.04623834	-0.06781984	-0.95719534	0	0	0.41	3.9846295e-18
2.500077313872613e-10	0.041026562	-0.06681835	-0.9562372	0	0	0.41	5.1604357e-18
2.600432804720718e-10	0.03324514	-0.058355417	-0.95375234	0	0	0.41	5.244735e-18
2.700141866732881e-10	0.040867057	-0.06866014	-0.9470367	0	0	0.41	4.4701506e-18
2.8001682519907663e-10	0.019439299	-0.07594921	-0.95055324	0	0	0.41	4.8930157e-18
2.900511671375383e-10	0.027839446	-0.08395376	-0.9484814	0	0	0.41	4.9162206e-18
3.000407717763144e-10	0.030745491	-0.06749836	-0.9517231	0	0	0.41	5.1930564e-18
3.100500239961997e-10	0.024553953	-0.07374733	-0.95052344	0	0	0.41	4.778362e-18
3.200444499556647e-10	0.008018294	-0.05894395	-0.9489731	0	0	0.41	3.998087e-18
3.300494155914052e-10	0.011395581	-0.06414007	-0.9456388	0	0	0.41	4.939182e-18
3.4001726172052097e-10	0.022667423	-0.07167511	-0.94778395	0	0	0.41	4.804181e-18
3.500248311786197e-10	0.04269701	-0.0847454	-0.94859284	0	0	0.41	4.9005935e-18
3.6006078605718783e-10	0.04824269	-0.07713019	-0.9493489	0	0	0.41	4.2485465e-18
3.700061941048939e-10	0.033492085	-0.07797027	-0.9532579	0	0	0.41	5.191269e-18
3.8000175144330694e-10	0.01715502	-0.0669439	-0.9506733	0	0	0.41	5.16507e-18
3.9005123065354833e-10	0.017162578	-0.066671476	-0.9513212	0	0	0.41	4.88442e-18
4.0003020919847664e-10	0.014408803	-0.07405446	-0.9494076	0	0	0.41	4.997094e-18
4.100548462727785e-10	0.021804819	-0.06460092	-0.94915277	0	0	0.41	3.8088913e-18
4.200390525219989e-10	0.0360917	-0.054366414	-0.9516081	0	0	0.41	5.1677373e-18
4.300029799071756e-10	0.044858135	-0.07227576	-0.9523103	0	0	0.41	4.853906e-18
4.400575032183344e-10	0.03403966	-0.086053744	-0.94930255	0	0	0.41	5.855033e-18
4.500357850998027e-10	0.040412307	-0.084016755	-0.95355916	0	0	0.41	5.6996946e-18
4.600472793774544e-10	0.030813769	-0.0754343	-0.9555515	0	0	0.41	5.0288842e-18
4.700345037160005e-10	0.038896255	-0.05697006	-0.9533589	0	0	0.41	3.89042e-18
4.800038086094573e-10	0.018658761	-0.052090425	-0.952024	0	0	0.41	4.726734e-18
4.900157283041731e-10	0.024602424	-0.048151508	-0.95108	0	0	0.41	3.862761e-18
5.00050585127865e-10	0.022017164	-0.046819862	-0.9510106	0	0	0.41	4.815128e-18
5.100594245477302e-10	0.045799434	-0.04337354	-0.9528782	0	0	0.41	4.0531432e-18
5.200475057363577e-10	0.05804494	-0.04872339	-0.95297873	0	0	0.41	5.736388e-18
5.300017572707771e-10	0.059131175	-0.07118236	-0.95033604	0	0	0.41	4.0041522e-18
5.400096377392572e-10	0.051056877	-0.07562826	-0.9512422	0	0	0.41	4.280265e-18
5.500222649419805e-10	0.032304537	-0.08259452	-0.9489086	0	0	0.41	5.504143e-18
5.600174083950462e-10	0.019636074	-0.08110208	-0.944124	0	0	0.41	4.265109e-18
5.700528708894792e-10	0.014951979	-0.07518516	-0.9454222	0	0	0.41	4.356059e-18
5.800014693188747e-10	0.020523164	-0.07807816	-0.9478405	0	0	0.41	4.4849824e-18
5.900414578967159e-10	0.021043858	-0.07265796	-0.94691837	0	0	0.41	4.947618e-18
6.000262211099698e-10	0.016034145	-0.07679347	-0.9502436	0	0	0.41	5.0768103e-18
6.100487508479062e-10	0.03350663	-0.09000587	-0.94474053	0	0	0.41	4.4845667e-18
6.200049425458487e-10	0.033681422	-0.10820075	-0.9406885	0	0	0.41	4.6289085e-18
6.300394387679489e-10	0.04913661	-0.10959293	-0.94068193	0	0	0.41	4.9216994e-18
6.400475073868697e-10	0.04424685	-0.12105409	-0.9442848	0	0	0.41	4.7383937e-18
6.500433733738471e-10	0.037144367	-0.11108838	-0.94498485	0	0	0.41	5.041474e-18
6.600236283187191e-10	0.039213497	-0.134011	-0.937382	0	0	0.41	5.2032866e-18
6.700039752337526e-10	0.05658179	-0.15743212	-0.93183696	0	0	0.41	5.2029404e-18
6.800025152400585e-10	0.047288135	-0.14884533	-0.93191004	0	0	0.41	5.4617747e-18
6.900436148175708e-10	0.051016785	-0.14172089	-0.9395851	0	0	0.41	4.9815124e-18
7.000355133428885e-10	0.04324594	-0.14653464	-0.9360218	0	0	0.41	4.818035e-18
7.100068010015656e-10	0.04338721	-0.14201464	-0.93019325	0	0	0.41	5.448787e-18
7.200172462310757e-10	0.050711576	-0.13823281	-0.9375158	0	0	0.41	4.1630143e-18
7.300205007776963e-10	0.053916488	-0.12462922	-0.9384725	0	0	0.41	4.642815e-18
7.400177914254735e-10	0.060173158	-0.10344636	-0.93950725	0	0	0.41	4.5726648e-18
7.500046909864267e-10	0.07905021	-0.103486076	-0.941416	0	0	0.41	4.8299845e-18
7.600530228054305e-10	0.08072145	-0.106771804	-0.9405895	0	0	0.41	5.279518e-18
7.700030907521346e-10	0.087255366	-0.10664321	-0.94135094	0	0	0.41	5.051937e-18
7.800438899999439e-10	0.06721856	-0.08864946	-0.944739	0	0	0.41	5.0961427e-18
7.900275483424451e-10	0.08246233	-0.086606055	-0.94142956	0	0	0.41	3.606905e-18
8.000389901080878e-10	0.083603546	-0.109662436	-0.93938196	0	0	0.41	4.8642865e-18
8.100527703535408e-10	0.07160516	-0.086709656	-0.94164973	0	0	0.41	4.5148283e-18
8.20022684622323e-10	0.06846082	-0.07636214	-0.9379525	0	0	0.41	5.2044446e-18
8.300256317022466e-10	0.0662286	-0.06531076	-0.9397341	0	0	0.41	4.7466403e-18
8.400439474735941e-10	0.07561444	-0.059500266	-0.9387909	0	0	0.41	3.7660102e-18
8.500251738902658e-10	0.08350556	-0.05956727	-0.9393749	0	0	0.41	4.5985584e-18
8.600519189749936e-10	0.07773874	-0.055795528	-0.93935806	0	0	0.41	5.1071335e-18
8.700347233865469e-10	0.07365154	-0.04400879	-0.9422215	0	0	0.41	5.633409e-18
8.800466068677712e-10	0.08594721	-0.034891006	-0.94206536	0	0	0.41	3.903462e-18
8.900058590171801e-10	0.09495495	-0.042968504	-0.94466615	0	0	0.41	5.281678e-18
9.000465884325076e-10	0.09361596	-0.05544952	-0.94163805	0	0	0.41	4.381063e-18
9.100388605659852e-10	0.06037646	-0.051884	-0.94243467	0	0	0.41	4.7422322e-18
9.200182604017395e-10	0.05276431	-0.038640525	-0.9431412	0	0	0.41	5.4896677e-18
9.300131021730199e-10	0.035454728	-0.03791775	-0.94976455	0	0	0.41	5.476532e-18
9.400319442584493e-10	0.04934512	-0.0282629	-0.95119727	0	0	0.41	3.528193e-18
9.500588747512635e-10	0.04244637	-0.059294723	-0.94685596	0	0	0.41	4.2385785e-18
9.600419613976618e-10	0.04807103	-0.0660058	-0.94528174	0	0	0.41	5.5335976e-18
9.70010194927712e-10	0.05123117	-0.07558078	-0.94482404	0	0	0.41	4.0888315e-18
9.800621524576836e-10	0.0512963	-0.089382775	-0.94566035	0	0	0.41	4.5548746e-18
9.900294121841745e-10	0.04054886	-0.093209065	-0.94163173	0	0	0.41	4.249445e-18
1.0000196647991832e-09	0.043306556	-0.08982144	-0.93740636	0	0	0.41	4.5089156e-18
1.0100206485982388e-09	0.04061397	-0.09489733	-0.9310426	0	0	0.41	4.7459124e-18
1.0200034818603538e-09	0.02584464	-0.08553421	-0.92840594	0	0	0.41	4.3298976e-18
1.0300015571177757e-09	0.038738955	-0.07558831	-0.92454404	0	0	0.41	4.5987507e-18
1.0400156207616754e-09	0.070544764	-0.07980479	-0.92363745	0	0	0.41	4.992728e-18
1.0500215250516317e-09	0.08300728	-0.078571945	-0.9266651	0	0	0.41	5.4351346e-18
1.0600569425232818e-09	0.10906402	-0.08899565	-0.9250422	0	0	0.41	4.143734e-18
1.0700564305655787e-09	0.12027227	-0.104499266	-0.9281377	0	0	0.41	4.8264537e-18
1.0800463905303872e-09	0.1280548	-0.10399474	-0.92533875	0	0	0.41	5.137722e-18
1.0900543178275236e-09	0.12131613	-0.10606889	-0.9260233	0	0	0.41	3.8723927e-18
1.1000228439857594e-09	0.1169241	-0.09936383	-0.92779934	0	0	0.41	4.556142e-18
1.1100012057644354e-09	0.12403682	-0.10637119	-0.92694616	0	0	0.41	4.5384216e-18
1.1200611652756144e-09	0.121555895	-0.09064645	-0.92824674	0	0	0.41	4.4209594e-18
1.1300351370876547e-09	0.1332412	-0.08157189	-0.93366194	0	0	0.41	5.1065457e-18
1.1400005126938315e-09	0.1439788	-0.07245082	-0.9297045	0	0	0.41	5.0368248e-18
1.1500104368832125e-09	0.14854315	-0.075497285	-0.929826	0	0	0.41	5.115647e-18
1.1600571579473856e-09	0.13530831	-0.09185607	-0.9309656	0	0	0.41	4.719247e-18
1.1700606391802023e-09	0.13928339	-0.098858826	-0.9259521	0	0	0.41	5.4007234e-18
1.18003495234314e-09	0.13404235	-0.108539194	-0.921083	0	0	0.41	3.7295307e-18
1.1900635994171775e-09	0.16135025	-0.11539865	-0.91521734	0	0	0.41	4.4625736e-18
1.2000159604205315e-09	0.15281236	-0.11300683	-0.91307116	0	0	0.41	4.5398542e-18
1.2100546600134645e-09	0.16113834	-0.09754206	-0.90914965	0	0	0.41	4.7045215e-18
1.220033699480082e-09	0.1750181	-0.09169984	-0.90587103	0	0	0.41	4.579681e-18
1.2300240341218888e-09	0.20539656	-0.06781381	-0.89925164	0	0	0.41	4.4309596e-18
1.2400392475652863e-09	0.21844779	-0.043762896	-0.90022254	0	0	0.41	4.6121267e-18
1.2500644482954828e-09	0.22431909	-0.04761852	-0.89837843	0	0	0.41	4.8013074e-18
1.2600494222879157e-09	0.23086435	-0.040559623	-0.90243596	0	0	0.41	3.940357e-18
1.2700446225135765e-09	0.25595376	-0.03818562	-0.90087223	0	0	0.41	4.4064387e-18
1.280027256425756e-09	0.26279646	-0.030124355	-0.90369254	0	0	0.41	4.8358306e-18
1.2900460765353821e-09	0.23573014	-0.025399486	-0.91082025	0	0	0.41	4.398419e-18
1.3000174059221897e-09	0.23222746	-0.0031485828	-0.9086286	0	0	0.41	5.3389144e-18
1.3100493094075956e-09	0.21787958	0.01277241	-0.9094469	0	0	0.41	4.2420175e-18
1.3200570117672633e-09	0.21018523	0.033054627	-0.9119528	0	0	0.41	4.4026634e-18
1.3300198453513288e-09	0.21891707	0.06773987	-0.9101262	0	0	0.41	4.6389087e-18
1.3400266440544978e-09	0.23503958	0.09378372	-0.90471107	0	0	0.41	5.482466e-18
1.3500197804811241e-09	0.2511422	0.09998105	-0.90628284	0	0	0.41	4.3509402e-18
1.36004200857067e-09	0.25321558	0.10129419	-0.8998234	0	0	0.41	4.4034836e-18
1.370023721799381e-09	0.24826375	0.114759095	-0.8923791	0	0	0.41	5.2847457e-18
1.3800073862457056e-09	0.25051463	0.12189829	-0.88324195	0	0	0.41	5.774575e-18
1.3900357546987943e-09	0.24420264	0.1388061	-0.8839457	0	0	0.41	5.4689096e-18
1.4000287223384978e-09	0.22674055	0.15492514	-0.88160646	0	0	0.41	3.7251243e-18
1.4100437455603155e-09	0.22024652	0.17394398	-0.8838689	0	0	0.41	5.411103e-18
1.4200624959034752e-09	0.2030746	0.1966926	-0.8791006	0	0	0.41	4.261498e-18
1.4300430662440113e-09	0.17322797	0.23349878	-0.87554467	0	0	0.41	4.724196e-18
1.4400223126161075e-09	0.16506065	0.25470793	-0.87164336	0	0	0.41	4.453338e-18
1.4500034898098039e-09	0.15155134	0.28496504	-0.85959476	0	0	0.41	3.4563781e-18
1.4600108372357214e-09	0.14112288	0.31356907	-0.83632237	0	0	0.41	5.3087364e-18
1.4700651487938842e-09	0.08623343	0.3085972	-0.8294989	0	0	0.41	5.0467174e-18
1.4800230667100277e-09	0.02236109	0.26458353	-0.82053655	0	0	0.41	5.354209e-18
1.490045227364239e-09	-0.051836822	0.18659455	-0.8057489	0	0	0.41	4.4785246e-18
1.5000455476694015e-09	-0.08779742	0.093087405	-0.801028	0	0	0.41	4.0949696e-18
1.5100514910652105e-09	-0.10927777	-0.03159904	-0.8010825	0	0	0.41	4.61516e-18
1.5200049008159661e-09	-0.119456515	-0.13272472	-0.7952654	0	0	0.41	4.6330924e-18
1.5300251482649703e-09	-0.07716341	-0.22183812	-0.7969252	0	0	0.41	4.053391e-18
1.5400527344756404e-09	-0.006589105	-0.269027	-0.80308217	0	0	0.41	4.7523267e-18
1.5500516653047182e-09	0.077996634	-0.27519217	-0.7908989	0	0	0.41	4.2319458e-18
1.5600479875685383e-09	0.1658423	-0.2188644	-0.7831412	0	0	0.41	4.501322e-18
1.5700633562672477e-09	0.2147428	-0.10663221	-0.7745606	0	0	0.41	5.126037e-18
1.5800123423378904e-09	0.23870523	0.021656737	-0.7649709	0	0	0.41	2.9602627e-18
1.5900057902495156e-09	0.22521202	0.14564171	-0.7503343	0	0	0.41	4.3220526e-18
1.6000042100870196e-09	0.16772541	0.23697498	-0.75263137	0	0	0.41	5.2703854e-18
1.6100237708985467e-09	0.058973275	0.29223815	-0.75573593	0	0	0.41	5.1588463e-18
1.6200296835928777e-09	-0.03906504	0.29617155	-0.74158865	0	0	0.41	4.924508e-18
1.6300232328164716e-09	-0.1647355	0.24423353	-0.72667736	0	0	0.41	3.962628e-18
1.6400133384618616e-09	-0.24649273	0.12932497	-0.7102837	0	0	0.41	4.3207064e-18
1.6500427500553856e-09	-0.25648448	-0.0068394328	-0.69116753	0	0	0.41	4.7769e-18
1.660042313775613e-09	-0.18454663	-0.13357487	-0.68391967	0	0	0.41	3.140554e-18
1.6700540855026122e-09	-0.059815314	-0.20884599	-0.6901861	0	0	0.41	3.756476e-18
1.68003363278676e-09	0.08774435	-0.22997618	-0.6844506	0	0	0.41	5.1561596e-18
1.6900222401904844e-09	0.22114143	-0.18439098	-0.683896	0	0	0.41	4.528809e-18
1.7000500790744987e-09	0.30466655	-0.03871115	-0.6631918	0	0	0.41	5.779298e-18
1.7100626274131175e-09	0.29004663	0.11526354	-0.64933455	0	0	0.41	4.2500556e-18
1.7200518872613934e-09	0.2169994	0.25102052	-0.64443815	0	0	0.41	4.9740736e-18
1.7300424677903173e-09	0.05510632	0.34022185	-0.6433194	0	0	0.41	3.509221e-18
1.7400344583820958e-09	-0.08998982	0.3259757	-0.64073503	0	0	0.41	4.744351e-18
1.7500171829880357e-09	-0.21650104	0.22197732	-0.63373	0	0	0.41	3.9263555e-18
1.7600494071748763e-09	-0.26535958	0.06126537	-0.6235688	0	0	0.41	3.7273193e-18
1.770053683962461e-09	-0.21246105	-0.12623419	-0.60953987	0	0	0.41	4.7628563e-18
1.7800317867596153e-09	-0.1008133	-0.2689784	-0.6183165	0	0	0.41	4.680286e-18
1.7900553086117286e-09	0.076558605	-0.33922356	-0.6188298	0	0	0.41	3.8385056e-18
1.8000279513001786e-09	0.24593636	-0.29049325	-0.6124231	0	0	0.41	4.109632e-18
1.8100151879804348e-09	0.32275984	-0.08808682	-0.59075236	0	0	0.41	4.766982e-18
1.8200431521094988e-09	0.2630692	0.11065232	-0.5706747	0	0	0.41	3.7808846e-18
1.83004206852838e-09	0.17084907	0.22422756	-0.5701984	0	0	0.41	3.6741944e-18
1.8400523414696135e-09	0.010485496	0.29418367	-0.5781854	0	0	0.41	4.151809e-18
1.8500600300961625e-09	-0.17185588	0.2667578	-0.5765347	0	0	0.41	3.729687e-18
1.8600585628620992e-09	-0.3143378	0.13946617	-0.56883836	0	0	0.41	3.5225366e-18
1.8700301885541183e-09	-0.3205446	-0.07740855	-0.54630715	0	0	0.41	3.6344033e-18
1.8800368426519858e-09	-0.20788884	-0.26081398	-0.5386832	0	0	0.41	4.4405475e-18
1.890009589526988e-09	-0.059119694	-0.37861383	-0.5303449	0	0	0.41	3.1733678e-18
1.90002354546861e-09	0.15625945	-0.3926209	-0.5233826	0	0	0.41	4.5723906e-18
1.9100224435991076e-09	0.31157053	-0.27322882	-0.5182231	0	0	0.41	3.7583787e-18
1.9200403155868555e-09	0.37085134	-0.036555544	-0.5054949	0	0	0.41	3.6854404e-18
1.930004814342572e-09	0.26912764	0.17294787	-0.48380584	0	0	0.41	4.4121686e-18
1.9400240484166846e-09	0.09021367	0.3001337	-0.48522255	0	0	0.41	3.861257e-18
1.950050680982252e-09	-0.11756609	0.29635456	-0.47857264	0	0	0.41	3.6271043e-18
1.960048902349584e-09	-0.27909502	0.17618054	-0.4776994	0	0	0.41	3.8300712e-18
1.970050340777874e-09	-0.35883763	-0.0333613	-0.46054468	0	0	0.41	3.7040527e-18
1.9800540534247338e-09	-0.27193955	-0.22906198	-0.44446838	0	0	0.41	3.0355208e-18
1.990044364238971e-09	-0.08461329	-0.38537163	-0.44909126	0	0	0.41	2.8106904e-18
2.0000527869925807e-09	0.18523988	-0.3881745	-0.4314551	0	0	0.41	3.896296e-18
2.0100072434971756e-09	0.3344407	-0.1805872	-0.43275443	0	0	0.41	3.2546616e-18
2.0200308829387377e-09	0.32666102	0.046525158	-0.4260804	0	0	0.41	3.713801e-18
2.0300201280597237e-09	0.23423286	0.21818955	-0.41406855	0	0	0.41	4.121894e-18
2.040029586743281e-09	0.038281303	0.33843243	-0.4091333	0	0	0.41	2.7061456e-18
2.050022517893434e-09	-0.17454451	0.3115802	-0.3970651	0	0	0.41	4.3493905e-18
2.0600083349974704e-09	-0.3522122	0.15489529	-0.39299127	0	0	0.41	4.1079162e-18
2.0700022207266286e-09	-0.3713015	-0.07997073	-0.3786057	0	0	0.41	2.560456e-18
2.0800252237977323e-09	-0.23187679	-0.3051531	-0.36294982	0	0	0.41	3.918065e-18
2.0900492789002778e-09	0.0076067974	-0.39079022	-0.35151246	0	0	0.41	3.1784934e-18
2.100044145612502e-09	0.24199203	-0.3292962	-0.3532716	0	0	0.41	3.3777209e-18
2.1100224707214675e-09	0.38238493	-0.13819294	-0.32791862	0	0	0.41	3.5042497e-18
2.1200209144780266e-09	0.35921663	0.11465082	-0.3175817	0	0	0.41	2.733073e-18
2.1300314968747276e-09	0.1682902	0.31637287	-0.29542962	0	0	0.41	4.005972e-18
2.1400353089515907e-09	-0.08428174	0.35449076	-0.2826699	0	0	0.41	3.6673946e-18
2.1500163108011016e-09	-0.30424535	0.25707212	-0.27959323	0	0	0.41	2.9629316e-18
2.160036880050637e-09	-0.40411925	0.03823234	-0.25638965	0	0	0.41	4.0977762e-18
2.1700623262455e-09	-0.3405904	-0.22330675	-0.24772926	0	0	0.41	2.374134e-18
2.1800431637063513e-09	-0.112505145	-0.40017992	-0.23696817	0	0	0.41	2.6701793e-18
2.190050098789404e-09	0.17604545	-0.36857328	-0.23736095	0	0	0.41	3.560134e-18
2.2000548212975945e-09	0.3417378	-0.17949301	-0.22365727	0	0	0.41	2.177708e-18
2.2100115279498518e-09	0.34646833	0.053523872	-0.20532075	0	0	0.41	3.1216543e-18
2.2200230806493546e-09	0.22269744	0.28003725	-0.19637366	0	0	0.41	4.16408e-18
2.230037659769128e-09	-0.033774126	0.40713948	-0.18875344	0	0	0.41	2.4304064e-18
2.2400058216713048e-09	-0.32194164	0.31170523	-0.18234979	0	0	0.41	3.0942407e-18
2.2500471631083634e-09	-0.43365708	0.043724444	-0.16640571	0	0	0.41	3.207783e-18
2.2600054121303048e-09	-0.35917532	-0.21488175	-0.14721578	0	0	0.41	2.9521768e-18
2.2700069283309798e-09	-0.10074535	-0.38821098	-0.13994147	0	0	0.41	3.4619436e-18
2.2800232104441023e-09	0.17020848	-0.3487036	-0.123886615	0	0	0.41	2.2526829e-18
2.2900373378360647e-09	0.30648604	-0.15484282	-0.116205886	0	0	0.41	3.0490973e-18
2.300049954840204e-09	0.3224556	0.113620795	-0.107547686	0	0	0.41	2.9918992e-18
2.3100130354983146e-09	0.15590537	0.3512282	-0.09316507	0	0	0.41	2.7738768e-18
2.32000537756056e-09	-0.09174171	0.42638972	-0.081450626	0	0	0.41	2.7872035e-18
2.330010216557659e-09	-0.36092824	0.3177418	-0.062493835	0	0	0.41	2.2866384e-18
2.340021324383964e-09	-0.465264	0.018787064	-0.052009847	0	0	0.41	3.1495539e-18
2.3500132435208965e-09	-0.31499958	-0.2641927	-0.03359478	0	0	0.41	2.2863165e-18
2.3600411776614904e-09	-0.054275014	-0.38900834	-0.02881938	0	0	0.41	2.1384217e-18
2.370028690797056e-09	0.18770565	-0.31950998	-0.026272178	0	0	0.41	2.4932266e-18
2.3800600693071467e-09	0.3325194	-0.15608929	-0.01816153	0	0	0.41	3.2769506e-18
2.3900382290420503e-09	0.37257978	0.079262346	-4.536295e-05	0	0	0.41	2.8890993e-18
2.4000146408340916e-09	0.19861351	0.33671436	0.011934929	0	0	0.41	2.2707204e-18
2.4100544844887656e-09	-0.109162636	0.38757017	0.017333815	0	0	0.41	2.266633e-18
2.4200300164977728e-09	-0.31046268	0.22897813	0.0178522	0	0	0.41	1.6068337e-18
2.4300426154491903e-09	-0.36464995	-0.034851197	0.031316787	0	0	0.41	2.3222202e-18
2.4400051556785166e-09	-0.24054982	-0.27277783	0.041195236	0	0	0.41	2.7993519e-18
2.450019803223343e-09	0.034977973	-0.39141214	0.049566504	0	0	0.41	2.362957e-18
2.460021308590998e-09	0.3338971	-0.2822625	0.0626558	0	0	0.41	2.9438492e-18
2.470013539767156e-09	0.45171225	0.006317078	0.077188574	0	0	0.41	1.5565955e-18
2.4800193651208356e-09	0.3007964	0.296969	0.09803554	0	0	0.41	2.3736248e-18
2.490013947968928e-09	0.008601184	0.40793365	0.11066995	0	0	0.41	1.3753202e-18
2.5000573373517017e-09	-0.23881428	0.28375918	0.119379655	0	0	0.41	2.5615685e-18
2.5100121546845314e-09	-0.33982247	0.03477533	0.13469575	0	0	0.41	2.6927918e-18
2.5200373326264153e-09	-0.29741827	-0.2247486	0.14871314	0	0	0.41	2.4844585e-18
2.5300418277770503e-09	-0.09689346	-0.39755476	0.16383053	0	0	0.41	1.3925724e-18
2.5400246131968224e-09	0.1886801	-0.36817038	0.17434111	0	0	0.41	1.7660583e-18
2.550017968523736e-09	0.35077453	-0.17300293	0.1876421	0	0	0.41	1.1083277e-18
2.5600097542943434e-09	0.33689347	0.11202571	0.20683195	0	0	0.41	2.2132706e-18
2.5700325591100884e-09	0.15953526	0.31204206	0.21459092	0	0	0.41	1.5805941e-18
2.580027903127921e-09	-0.11318736	0.35960326	0.22126475	0	0	0.41	6.031946e-19
2.5900081392014707e-09	-0.320623	0.19314079	0.23938374	0	0	0.41	2.2885556e-18
2.6000161314687078e-09	-0.3579705	-0.049954448	0.2524226	0	0	0.41	1.4985553e-18
2.6100338424394248e-09	-0.19376646	-0.27430728	0.27184227	0	0	0.41	1.7316043e-18
2.620009614736378e-09	0.070204385	-0.33784485	0.27479452	0	0	0.41	2.3556753e-18
2.6300558889267088e-09	0.3012041	-0.2201177	0.2754393	0	0	0.41	2.9048265e-18
2.6400399385485326e-09	0.3824166	0.03179418	0.28633383	0	0	0.41	1.5358432e-18
2.6500547636200592e-09	0.23280774	0.30650988	0.2939162	0	0	0.41	1.1330623e-18
2.6600110578378723e-09	-0.11859672	0.41502237	0.3023477	0	0	0.41	1.3277928e-18
2.6700177797122097e-09	-0.37656417	0.20334727	0.30554172	0	0	0.41	1.4711716e-18
2.6800181825584793e-09	-0.34432566	-0.08505961	0.31602013	0	0	0.41	1.1526322e-18
2.690040106161551e-09	-0.16100594	-0.25456887	0.32704678	0	0	0.41	6.8806827e-19
2.7000108035296226e-09	0.048986107	-0.29533845	0.34297395	0	0	0.41	5.0059533e-19
2.7100368396568663e-09	0.2695274	-0.21558683	0.3517456	0	0	0.41	1.1632927e-18
2.7200146616785547e-09	0.39666486	0.018124823	0.37144598	0	0	0.41	9.398126e-19
2.7300216018119546e-09	0.26392692	0.3135592	0.37874115	0	0	0.41	2.1714713e-18
2.7400468430719745e-09	-0.06550686	0.38119233	0.39923906	0	0	0.41	1.2420343e-18
2.7500285668675616e-09	-0.26884887	0.18990137	0.39956236	0	0	0.41	1.1947487e-18
2.76004423604622e-09	-0.31153843	-0.053554215	0.41412234	0	0	0.41	9.093778e-19
2.7700448696987103e-09	-0.17796698	-0.27697948	0.43752974	0	0	0.41	1.0556546e-18
2.7800175956352687e-09	0.067806005	-0.33625522	0.44993442	0	0	0.41	-4.1627412e-19
2.7900573021075827e-09	0.29515535	-0.17665279	0.45074654	0	0	0.41	1.3629852e-18
2.8000283466766172e-09	0.30988523	0.08398379	0.45343333	0	0	0.41	3.691776e-19
2.8100099184762584e-09	0.15366858	0.27755898	0.4724773	0	0	0.41	9.240858e-19
2.8200489630478817e-09	-0.10355599	0.3351629	0.48456025	0	0	0.41	8.6080137e-19
2.8300410495923433e-09	-0.30429038	0.16374896	0.4920477	0	0	0.41	5.9243916e-19
2.840058589976056e-09	-0.27920824	-0.08637341	0.49042594	0	0	0.41	1.6434155e-18
2.850058379286315e-09	-0.09824395	-0.2592154	0.50355595	0	0	0.41	1.0057127e-18
2.860028951539481e-09	0.106292486	-0.24687894	0.5239592	0	0	0.41	3.3484134e-19
2.87000286906237e-09	0.23845209	-0.12628737	0.5336191	0	0	0.41	-8.8732924e-21
2.880042893778156e-09	0.26832974	0.0812204	0.55157095	0	0	0.41	1.1695816e-18
2.8900187586418263e-09	0.089518465	0.29684335	0.57939357	0	0	0.41	5.3904966e-20
2.900057366526449e-09	-0.18040155	0.28936943	0.5870893	0	0	0.41	4.4565653e-19
2.910041329125932e-09	-0.32544386	0.033708412	0.59064823	0	0	0.41	1.0457094e-18
2.9200009648857605e-09	-0.20808914	-0.23249447	0.60027987	0	0	0.41	-2.4182959e-19
2.930046946880058e-09	0.07351317	-0.30388984	0.6216844	0	0	0.41	-1.8417861e-19
2.9400196902770927e-09	0.28422573	-0.15864715	0.6286796	0	0	0.41	1.1663136e-18
2.9500035079316606e-09	0.2685866	0.096385315	0.64651066	0	0	0.41	4.149131e-19
2.960056540197749e-09	0.07095554	0.22751516	0.65639013	0	0	0.41	5.6391544e-19
2.9700335619861484e-09	-0.09481988	0.20566805	0.6700337	0	0	0.41	1.2804695e-18
2.980063024262931e-09	-0.20655674	0.103909016	0.67344755	0	0	0.41	4.9741446e-19
2.9900174197617576e-09	-0.21164897	-0.08994382	0.67756975	0	0	0.41	-9.476212e-19
3.0000538039032587e-09	-0.071445055	-0.25850406	0.6916769	0	0	0.41	2.1973037e-19
3.0100524243557954e-09	0.16855149	-0.2242268	0.70246387	0	0	0.41	-2.6672167e-19
3.020031490381261e-09	0.2826669	-0.01713618	0.7127577	0	0	0.41	2.1042898e-19
3.0300063788547858e-09	0.19399643	0.23745042	0.72935796	0	0	0.41	-7.2546485e-19
3.0400416222408906e-09	-0.093806095	0.3110698	0.74094	0	0	0.41	-1.1527742e-19
3.0500618026431356e-09	-0.335116	0.06496623	0.7392011	0	0	0.41	-5.411453e-19
3.0600589898571374e-09	-0.18630673	-0.24661274	0.7385042	0	0	0.41	-1.1003601e-18
3.070016264886785e-09	0.09833797	-0.21797024	0.76367617	0	0	0.41	-8.416852e-20
3.0800335279821346e-09	0.174923	-0.045846093	0.77352095	0	0	0.41	-8.3506266e-19
3.090013195842691e-09	0.15379861	0.067819424	0.7849656	0	0	0.41	-3.2432113e-19
3.100035593723465e-09	0.08440055	0.16407277	0.7888383	0	0	0.41	-2.6044226e-19
3.1100513094324894e-09	-0.0901304	0.1782385	0.7965175	0	0	0.41	7.655613e-21
3.120015593816107e-09	-0.22066404	0.022113208	0.80415785	0	0	0.41	-9.003228e-19
3.1300176951765986e-09	-0.1418793	-0.19959646	0.81541663	0	0	0.41	-8.603377e-19
3.1400400281217472e-09	0.13098924	-0.24440978	0.8237794	0	0	0.41	1.0111313e-19
3.150043454922343e-09	0.28271744	0.020015975	0.8279588	0	0	0.41	-2.448398e-19
3.1600568618544566e-09	0.092446126	0.26860958	0.83279455	0	0	0.41	-4.410028e-19
3.1700513604009085e-09	-0.19932166	0.19824922	0.8476341	0	0	0.41	-1.0363386e-18
3.180043312218048e-09	-0.22995935	-0.08582785	0.8636664	0	0	0.41	3.9738956e-19
3.190004701932115e-09	0.007884967	-0.2284216	0.86751646	0	0	0.41	-8.856889e-19
3.200043024367602e-09	0.19371797	-0.05773581	0.88474816	0	0	0.41	2.667523e-19
3.2100205270869248e-09	0.1138427	0.14290328	0.89565635	0	0	0.41	-4.740021e-19
3.2200480895276652e-09	-0.08162812	0.16684584	0.9049439	0	0	0.41	-1.0875611e-18
3.230016322482373e-09	-0.1791659	-0.048791423	0.90593624	0	0	0.41	-1.8770763e-18
3.2400342231347442e-09	0.020470126	-0.17829087	0.91297483	0	0	0.41	-1.9519312e-19
3.250060590028762e-09	0.16549797	-0.009051119	0.9198135	0	0	0.41	-1.1691831e-18
3.2600553002921744e-09	0.039044913	0.17020315	0.9246251	0	0	0.41	-1.8280472e-18
3.2700167378236247e-09	-0.18035933	0.06724917	0.927603	0	0	0.41	-1.486775e-18
3.280040215461835e-09	-0.08412922	-0.16374782	0.9287216	0	0	0.41	-1.444522e-18
3.2900048208503234e-09	0.1333115	-0.09823271	0.9368121	0	0	0.41	-1.531603e-18
3.300026422520098e-09	0.1190956	0.09602049	0.941519	0	0	0.41	9.388808e-20
3.3100294305134216e-09	-0.051213026	0.12197985	0.9470024	0	0	0.41	-1.4480843e-18
3.3200570231966024e-09	-0.12860988	-0.031276245	0.94885045	0	0	0.41	-3.6326787e-19
3.3300652083580314e-09	0.017259646	-0.12339652	0.9505743	0	0	0.41	-1.7991761e-18
3.3400515737126852e-09	0.113562524	0.0040303217	0.95002794	0	0	0.41	-1.4316486e-18
3.3500111735270904e-09	0.016284347	0.1037382	0.9540751	0	0	0.41	-6.3987647e-19
3.360038983685798e-09	-0.09840737	0.026709806	0.954724	0	0	0.41	-2.1310917e-18
3.3700187039699284e-09	-0.0431826	-0.078583345	0.9575015	0	0	0.41	-1.6273539e-18
3.3800100796706975e-09	0.07701608	-0.061124135	0.95743066	0	0	0.41	-1.619835e-18
3.390047723105565e-09	0.051312055	0.07105005	0.959656	0	0	0.41	-2.2418923e-18
3.4000036260573384e-09	-0.08417541	0.061773133	0.95613855	0	0	0.41	-1.4400222e-18
3.410049910845575e-09	-0.059219312	-0.060369153	0.95958835	0	0	0.41	-1.711998e-18
3.4200602354838946e-09	0.051984854	-0.06281201	0.9598012	0	0	0.41	-9.713797e-19
3.4300341697502938e-09	0.07830075	0.044041187	0.96110356	0	0	0.41	-2.3756917e-18
3.440051765942221e-09	-0.017634572	0.08442088	0.9604015	0	0	0.41	-1.9816683e-18
3.4500449612100262e-09	-0.088651665	-0.00670088	0.9597496	0	0	0.41	-2.1297456e-18
3.460026065818675e-09	0.016596813	-0.09036511	0.96149975	0	0	0.41	-1.936923e-18
3.4700501570613134e-09	0.09105104	-0.0022945944	0.96341544	0	0	0.41	-1.395996e-18
3.4800391505130543e-09	0.011302507	0.0872148	0.95866764	0	0	0.41	-1.8763405e-18
3.4900061416362387e-09	-0.07240585	0.00015082148	0.9610877	0	0	0.41	-9.369872e-19
3.5000590753874002e-09	-0.020949885	-0.06769919	0.9624308	0	0	0.41	-2.3290182e-18
3.5100015427603157e-09	0.071112156	-0.023698855	0.95979184	0	0	0.41	-7.6705544e-19
3.520028788873305e-09	0.026728857	0.08194174	0.95728195	0	0	0.41	-1.5924028e-18
3.5300543990952704e-09	-0.08793843	0.067816466	0.95681477	0	0	0.41	-2.5525882e-18
3.54006312217964e-09	-0.08324453	-0.059087176	0.958549	0	0	0.41	-1.3441347e-18
3.550013954210125e-09	0.061856665	-0.09343015	0.9572662	0	0	0.41	-9.581388e-19
3.560053239107383e-09	0.08588887	0.05507783	0.9638487	0	0	0.41	-2.016443e-18
3.5700260621661426e-09	-0.046266884	0.0853409	0.96046007	0	0	0.41	-7.009987e-19
3.5800546059521767e-09	-0.09281313	-0.04362375	0.95861125	0	0	0.41	-1.3758432e-18
3.5900324052567016e-09	0.0151427835	-0.08660079	0.95801914	0	0	0.41	-9.684436e-19
3.600052690957867e-09	0.075816706	0.0003140102	0.95666754	0	0	0.41	-7.4476013e-19
3.6100523438301383e-09	0.026081307	0.06545262	0.95879316	0	0	0.41	-2.041775e-18
3.6200594224695753e-09	-0.06436945	0.03268132	0.9585788	0	0	0.41	-1.0893941e-18
3.6300374892541583e-09	-0.044833872	-0.05931111	0.957684	0	0	0.41	-1.2931807e-18
3.6400189566036385e-09	0.051236957	-0.053020444	0.96012104	0	0	0.41	-1.6544213e-18
3.650059662467031e-09	0.038901072	0.043518137	0.9635285	0	0	0.41	-9.135249e-19
3.6600318319755074e-09	-0.03724246	0.056239735	0.96003944	0	0	0.41	-6.9959824e-19
3.670008476781063e-09	-0.05959834	-0.03168046	0.9601307	0	0	0.41	-1.086015e-18
3.6800462845169987e-09	0.044871353	-0.07240286	0.95742977	0	0	0.41	-7.0784993e-19
3.6900483472224545e-09	0.06589451	0.043955244	0.9544007	0	0	0.41	-1.9070829e-18
3.7000059815524044e-09	-0.027590273	0.06284274	0.9587111	0	0	0.41	-1.749205e-18
3.710028822704604e-09	-0.064524435	-0.024801482	0.9608939	0	0	0.41	-1.5773261e-18
3.7200099241546163e-09	0.010424033	-0.0406847	0.9609792	0	0	0.41	-1.4726326e-18
3.730012828779424e-09	0.045160368	-0.0053520426	0.9643711	0	0	0.41	-6.6060675e-19
3.7400119726058035e-09	0.007895536	0.050150454	0.964194	0	0	0.41	-1.5975702e-18