# t (s)	mx ()	my ()	mz ()	B_extx (T)	B_exty (T)	B_extz (T)	E_total (J)
0	0	0	-1	0	0	0.39	1.17474e-18
1.0024830961097615e-11	-0.011824095	-0.0015927113	-0.97514004	0	0	0.39	4.779341e-18
2.0046114395343626e-11	-0.018814018	-0.02630231	-0.970047	0	0	0.39	5.0899992e-18
3.005047509485724e-11	-0.010968388	-0.025623059	-0.96485937	0	0	0.39	4.5492415e-18
4.0057447480206995e-11	-0.012966799	-0.0005929705	-0.96514195	0	0	0.39	4.540273e-18
5.005642794834313e-11	0.00045516572	-0.0059115007	-0.96340644	0	0	0.39	5.1872616e-18
6.005318211232843e-11	0.01546436	0.007140539	-0.9635867	0	0	0.39	4.3229154e-18
7.001508004263215e-11	0.026509156	-0.00010316595	-0.96524364	0	0	0.39	4.396976e-18
8.001560956766966e-11	0.026296355	0.013050791	-0.9617849	0	0	0.39	4.7633977e-18
9.00254366864344e-11	0.02981708	0.0067235883	-0.96115017	0	0	0.39	4.5919583e-18
1.0004670570805971e-10	0.0110436	0.028076088	-0.95853084	0	0	0.39	4.873176e-18
1.100396820164736e-10	0.0048239254	0.034708645	-0.9567336	0	0	0.39	4.648734e-18
1.2000284405813737e-10	0.020290006	0.034221176	-0.9531397	0	0	0.39	4.1763146e-18
1.300424114565235e-10	0.014623841	0.05021376	-0.95099646	0	0	0.39	4.9428918e-18
1.400203831306443e-10	0.023735179	0.06672112	-0.94993824	0	0	0.39	4.6556546e-18
1.5001924531603923e-10	0.032878656	0.06895058	-0.9470618	0	0	0.39	3.874931e-18
1.600515616900122e-10	0.031264763	0.08124654	-0.9479408	0	0	0.39	4.99886e-18
1.7004967283893083e-10	0.030487215	0.07038235	-0.95201313	0	0	0.39	4.06508e-18
1.8003538440387768e-10	0.041417163	0.06039155	-0.9537842	0	0	0.39	4.8539992e-18
1.9005986184794973e-10	0.043037426	0.06246362	-0.94858766	0	0	0.39	5.3184512e-18
2.0001411052167463e-10	0.038139455	0.0712755	-0.9531564	0	0	0.39	4.354741e-18
2.10039381033531e-10	0.052468747	0.051080212	-0.95342326	0	0	0.39	5.1038926e-18
2.2005734667509373e-10	0.04714311	0.054453902	-0.95162106	0	0	0.39	4.5446126e-18
2.3000881276979607e-10	0.05301897	0.06809651	-0.9462254	0	0	0.39	4.6444376e-18
2.4004701499912614e-10	0.053460218	0.06736769	-0.94207877	0	0	0.39	5.567721e-18
2.500623726190134e-10	0.061566386	0.063774	-0.9428574	0	0	0.39	5.179493e-18
2.6005488947625427e-10	0.060713757	0.050810676	-0.94486374	0	0	0.39	4.846925e-18
2.700463877384784e-10	0.07130973	0.057715796	-0.94293904	0	0	0.39	4.4494525e-18
2.8005015944137373e-10	0.063227594	0.05405181	-0.94191515	0	0	0.39	4.387983e-18
2.9001887579018517e-10	0.0626904	0.05405026	-0.94739264	0	0	0.39	5.0869333e-18
3.000375795507027e-10	0.08678423	0.040497635	-0.9478803	0	0	0.39	5.089361e-18
3.1003023573480307e-10	0.08753698	0.02147847	-0.94536173	0	0	0.39	4.993428e-18
3.2002405226267315e-10	0.10577052	0.0040440117	-0.9429328	0	0	0.39	5.3603095e-18
3.300017992394259e-10	0.11827799	-0.018221583	-0.94281113	0	0	0.39	5.2772973e-18
3.400096570079373e-10	0.11340205	-0.01385578	-0.94383264	0	0	0.39	5.042732e-18
3.5005434807786985e-10	0.1013542	-0.025165567	-0.9420966	0	0	0.39	4.5065404e-18
3.6000774223806174e-10	0.10637052	-0.04206188	-0.94587296	0	0	0.39	4.488661e-18
3.7001594113894477e-10	0.099710934	-0.03206419	-0.9412796	0	0	0.39	3.865678e-18
3.800618170622819e-10	0.092158034	-0.02943171	-0.9425771	0	0	0.39	5.0200673e-18
3.900135215920765e-10	0.09422546	-0.04956884	-0.9382898	0	0	0.39	4.9103302e-18
4.000353254260398e-10	0.086710684	-0.036275696	-0.9378322	0	0	0.39	4.2931422e-18
4.1001774321960636e-10	0.08552019	-0.04541868	-0.94206184	0	0	0.39	4.3146125e-18
4.200613616376593e-10	0.08277566	-0.038854957	-0.9386436	0	0	0.39	4.0846013e-18
4.3000000747268267e-10	0.09390357	-0.047318906	-0.9392012	0	0	0.39	4.927211e-18
4.400242077034882e-10	0.08241117	-0.047288608	-0.9447405	0	0	0.39	4.8225e-18
4.500308535954183e-10	0.078624725	-0.061529513	-0.9454556	0	0	0.39	3.799676e-18
4.6004222598171706e-10	0.0800373	-0.061240625	-0.9451143	0	0	0.39	4.891563e-18
4.70009195765653e-10	0.07576839	-0.061820954	-0.9451311	0	0	0.39	3.9138642e-18
4.80054662206017e-10	0.06723831	-0.055365197	-0.94749355	0	0	0.39	4.6972162e-18
4.900140074342232e-10	0.055374723	-0.05474504	-0.9379663	0	0	0.39	5.489889e-18
5.000638474939903e-10	0.072057575	-0.054275416	-0.93078893	0	0	0.39	4.695262e-18
5.100323335708977e-10	0.057827614	-0.055992447	-0.9362945	0	0	0.39	3.955762e-18
5.200352049731091e-10	0.06310392	-0.051512953	-0.9341482	0	0	0.39	4.7469885e-18
5.300610227762234e-10	0.07102336	-0.045939066	-0.9319006	0	0	0.39	4.592307e-18
5.400403029129675e-10	0.06473087	-0.04742524	-0.9356974	0	0	0.39	4.7908407e-18
5.500179203703253e-10	0.067055926	-0.044195794	-0.93519354	0	0	0.39	4.1628203e-18
5.60044011402139e-10	0.05752081	-0.06282283	-0.9415632	0	0	0.39	4.33241e-18
5.700087068581494e-10	0.060164288	-0.058553755	-0.9447008	0	0	0.39	4.093181e-18
5.800564163045298e-10	0.050815307	-0.054823015	-0.9455413	0	0	0.39	3.9341165e-18
5.900590999607563e-10	0.038823143	-0.07268628	-0.94349104	0	0	0.39	4.8788763e-18
6.000289838479889e-10	0.026611356	-0.08467884	-0.94243526	0	0	0.39	3.588154e-18
6.100346887538256e-10	0.022954917	-0.08351524	-0.93637365	0	0	0.39	3.7630626e-18
6.200241297109835e-10	0.02830544	-0.082752936	-0.9326321	0	0	0.39	4.702408e-18
6.300242178823509e-10	0.038724486	-0.08811091	-0.9328705	0	0	0.39	4.2797225e-18
6.400209137313623e-10	0.02145808	-0.08828871	-0.9341007	0	0	0.39	4.4048124e-18
6.50011491586166e-10	0.0012155073	-0.09916949	-0.9304799	0	0	0.39	4.1145175e-18
6.6005971084176e-10	0.0010221087	-0.09318798	-0.93202645	0	0	0.39	4.8175996e-18
6.700541111730505e-10	-0.0036603617	-0.06268846	-0.9360087	0	0	0.39	4.4278043e-18
6.80042406458912e-10	0.00040786254	-0.054442618	-0.9386568	0	0	0.39	3.610152e-18
6.900179881847204e-10	-0.013518425	-0.047553033	-0.93900084	0	0	0.39	4.3149575e-18
7.000033437558667e-10	-0.016218238	-0.030106707	-0.94279355	0	0	0.39	4.699285e-18
7.100400602257756e-10	-0.028324585	-0.045745455	-0.9466083	0	0	0.39	4.383303e-18
7.200599564774274e-10	-0.028180668	-0.03832598	-0.9493183	0	0	0.39	4.6323533e-18
7.300254883238032e-10	-0.03180971	-0.024955757	-0.95031106	0	0	0.39	4.2573253e-18
7.400095507345674e-10	-0.04168313	-0.008589002	-0.9488985	0	0	0.39	4.69687e-18
7.500306949044262e-10	-0.035287235	-0.0055500884	-0.9436286	0	0	0.39	4.112495e-18
7.600378328515169e-10	-0.03939305	-0.00836704	-0.9425856	0	0	0.39	5.5514357e-18
7.700160527807866e-10	-0.036549695	-0.016215289	-0.9455224	0	0	0.39	4.8143587e-18
7.800563087622481e-10	-0.031870157	-0.0096872905	-0.9428861	0	0	0.39	5.053917e-18
7.900310732631013e-10	-0.036040448	0.012950214	-0.9435686	0	0	0.39	4.5558775e-18
8.000109225730486e-10	-0.035916287	0.00935015	-0.9449142	0	0	0.39	4.4474726e-18
8.100184943350425e-10	-0.04755609	0.008408431	-0.9456231	0	0	0.39	3.7371544e-18
8.200130483316703e-10	-0.036134623	0.011152493	-0.9501887	0	0	0.39	5.198873e-18
8.300428844201899e-10	-0.042448245	0.015892308	-0.95167226	0	0	0.39	4.8828025e-18
8.400275255277208e-10	-0.049019843	0.021523893	-0.95091426	0	0	0.39	4.8980065e-18
8.500644400844901e-10	-0.049868185	0.014150578	-0.95226675	0	0	0.39	4.030984e-18
8.600651144497518e-10	-0.033478815	0.022921475	-0.9518455	0	0	0.39	4.008688e-18
8.700545155821597e-10	-0.024631321	0.034964025	-0.95179546	0	0	0.39	4.4735714e-18
8.800327123061988e-10	-0.018031003	0.041049037	-0.9510097	0	0	0.39	3.769558e-18
8.900049086619465e-10	-0.014705282	0.014624517	-0.9504193	0	0	0.39	5.608344e-18
9.000245562863865e-10	-0.023519652	0.01950133	-0.95156664	0	0	0.39	4.2737966e-18
9.100059204968442e-10	-0.03436427	0.03286285	-0.95344806	0	0	0.39	5.378959e-18
9.200155595447304e-10	-0.040438395	0.03681685	-0.95043826	0	0	0.39	4.531476e-18
9.300041282544326e-10	-0.03155313	0.03245341	-0.95297617	0	0	0.39	4.3305817e-18
9.400259073826178e-10	-0.026527263	0.028716162	-0.95372325	0	0	0.39	5.271432e-18
9.500333433841601e-10	-0.011283353	0.045188334	-0.95284724	0	0	0.39	4.3690993e-18
9.600200666163599e-10	-0.01284822	0.03713487	-0.94947344	0	0	0.39	4.5401454e-18
9.700307091533977e-10	-0.021803832	0.05763077	-0.9521764	0	0	0.39	4.6494098e-18
9.800059270159905e-10	-0.019964427	0.04908843	-0.9523493	0	0	0.39	4.9869863e-18
9.900085226490912e-10	-0.016612105	0.056219663	-0.9529571	0	0	0.39	4.7219965e-18
1.0000465767380965e-09	-0.0069417814	0.06116381	-0.9521885	0	0	0.39	3.9780505e-18
1.0100297444801547e-09	0.009271208	0.061083056	-0.9536015	0	0	0.39	4.106951e-18
1.0200165239093627e-09	0.027208062	0.058763467	-0.9528933	0	0	0.39	4.5936503e-18
1.0300167443797866e-09	0.02781267	0.052047286	-0.9533465	0	0	0.39	4.3875074e-18
1.040010591419344e-09	0.011864215	0.0497194	-0.9537358	0	0	0.39	4.0638474e-18
1.0500101263358642e-09	0.0058407183	0.03514831	-0.95110446	0	0	0.39	3.809845e-18
1.0600243236988535e-09	0.011887524	0.035114735	-0.9528431	0	0	0.39	5.0400826e-18
1.0700427423698985e-09	0.006880349	0.030739568	-0.95453316	0	0	0.39	4.424767e-18
1.080003813488036e-09	0.023054453	0.025034273	-0.9552295	0	0	0.39	4.0870605e-18
1.0900225671903613e-09	0.02022021	0.027593547	-0.9556648	0	0	0.39	3.7816166e-18
1.1000105615530573e-09	0.029402213	0.014446393	-0.9559582	0	0	0.39	4.828112e-18
1.110032611643749e-09	0.017317476	0.0017886455	-0.95548975	0	0	0.39	4.130273e-18
1.1200237720429668e-09	0.014180813	-0.0024127834	-0.9549256	0	0	0.39	4.4171796e-18
1.130011231771662e-09	0.029262872	-0.0068802987	-0.9532588	0	0	0.39	3.870463e-18
1.1400273039469694e-09	0.015858885	0.0029756166	-0.9551319	0	0	0.39	4.7205692e-18
1.1500412359808649e-09	0.023410587	0.00048579136	-0.95523685	0	0	0.39	3.568965e-18
1.1600613394139926e-09	0.019352749	0.0065757404	-0.9530206	0	0	0.39	4.6880072e-18
1.17006251150299e-09	0.029622786	0.008562622	-0.951378	0	0	0.39	4.6353775e-18
1.1800574592796756e-09	0.055517606	0.0077687977	-0.951518	0	0	0.39	4.9059276e-18
1.1900541186621232e-09	0.053301554	0.006356453	-0.94883084	0	0	0.39	4.837267e-18
1.2000107930817688e-09	0.07195772	0.0023425224	-0.94604486	0	0	0.39	4.201759e-18
1.210054299221428e-09	0.06673593	-0.009501848	-0.94711876	0	0	0.39	2.5087348e-18
1.2200306499160771e-09	0.054737277	-0.020487271	-0.9460673	0	0	0.39	4.3780838e-18
1.23005117046548e-09	0.040451974	-0.029731482	-0.94449437	0	0	0.39	4.3462357e-18
1.2400302622149037e-09	0.033019986	-0.034906995	-0.94416034	0	0	0.39	4.7448486e-18
1.2500286915718392e-09	0.026908902	-0.039057285	-0.94277465	0	0	0.39	4.4120197e-18
1.2600580388036678e-09	0.0427781	-0.025752475	-0.9433945	0	0	0.39	4.082666e-18
1.2700057512420906e-09	0.051386252	-0.009226278	-0.94553083	0	0	0.39	3.5514185e-18
1.280026539034083e-09	0.053433686	-0.0084984	-0.9506041	0	0	0.39	5.7485454e-18
1.2900507640289554e-09	0.05840888	-0.008217431	-0.9549849	0	0	0.39	4.879242e-18
1.300019931934163e-09	0.058360655	-0.025781652	-0.95324075	0	0	0.39	4.6065626e-18
1.3100586999489606e-09	0.05206636	-0.049775664	-0.950666	0	0	0.39	4.2672953e-18
1.320053823289326e-09	0.0410559	-0.04256744	-0.9533401	0	0	0.39	3.9590932e-18
1.330040115805448e-09	0.038851395	-0.02966142	-0.9498902	0	0	0.39	4.4447297e-18
1.3400047472139637e-09	0.023281978	-0.022287285	-0.94939584	0	0	0.39	3.7858423e-18
1.3500363081906538e-09	0.041361928	-0.017183095	-0.94307375	0	0	0.39	4.836001e-18
1.3600392821106015e-09	0.029847942	-0.036860477	-0.9405618	0	0	0.39	3.6573208e-18
1.370034784027136e-09	0.023123527	-0.039880358	-0.938775	0	0	0.39	4.834143e-18
1.380029608002135e-09	0.016761014	-0.052054834	-0.9373816	0	0	0.39	4.604955e-18
1.390056035115838e-09	0.017033333	-0.04704152	-0.94134027	0	0	0.39	4.703444e-18
1.4000476420187884e-09	0.019574072	-0.046265524	-0.9442827	0	0	0.39	3.6076994e-18
1.4100414927101632e-09	0.015583726	-0.052418508	-0.9443566	0	0	0.39	4.4967135e-18
1.4200226816990482e-09	0.01984871	-0.053168416	-0.94240695	0	0	0.39	5.120038e-18
1.4300493439486869e-09	0.019737765	-0.050826013	-0.94700396	0	0	0.39	3.8370353e-18
1.440052147843663e-09	0.017524626	-0.054448724	-0.9475296	0	0	0.39	4.489368e-18
1.4500563656254332e-09	-0.008138977	-0.040842757	-0.9485339	0	0	0.39	4.628743e-18
1.4600479975767474e-09	-0.009594061	-0.04576174	-0.94573337	0	0	0.39	4.1779867e-18
1.470010935444734e-09	-0.02337383	-0.05130845	-0.941754	0	0	0.39	4.913735e-18
1.4800219275352426e-09	-0.0055232896	-0.044820108	-0.93659544	0	0	0.39	4.588631e-18
1.4900080535296886e-09	0.0016406792	-0.04030436	-0.9382217	0	0	0.39	4.5723037e-18
1.500044820792077e-09	0.0039914604	-0.046239045	-0.9405897	0	0	0.39	4.134422e-18
1.510006887755753e-09	0.0013957751	-0.052240588	-0.9445938	0	0	0.39	3.957323e-18
1.5200293140860536e-09	-0.0018904385	-0.050734986	-0.94390804	0	0	0.39	4.589719e-18
1.5300125868606485e-09	-0.012496794	-0.045234412	-0.94438857	0	0	0.39	3.901217e-18
1.540035235888422e-09	-0.011823325	-0.027153935	-0.94528395	0	0	0.39	5.057534e-18
1.5500213197966613e-09	-0.006860982	-0.03008147	-0.9448388	0	0	0.39	4.342291e-18
1.56000350462785e-09	-0.0265595	-0.04337849	-0.9432142	0	0	0.39	4.8116513e-18
1.570027298038171e-09	0.00905613	-0.042110313	-0.9457644	0	0	0.39	5.366169e-18
1.580034313738071e-09	0.007852523	-0.057372544	-0.93914765	0	0	0.39	5.1873005e-18
1.5900562901280914e-09	0.004470568	-0.059744865	-0.9455082	0	0	0.39	5.1816794e-18
1.600026900468285e-09	0.01240322	-0.07099449	-0.94618505	0	0	0.39	3.8648997e-18
1.6100181983411255e-09	0.016395764	-0.08246832	-0.9426573	0	0	0.39	5.323877e-18
1.620052163942331e-09	0.0044785812	-0.08923109	-0.94099826	0	0	0.39	4.641964e-18
1.6300313763030093e-09	-0.015348604	-0.09147758	-0.94212174	0	0	0.39	4.7163787e-18
1.6400434166048986e-09	-0.0412367	-0.081308074	-0.94059557	0	0	0.39	4.991029e-18
1.6500410401674064e-09	-0.030179143	-0.10008107	-0.94208485	0	0	0.39	4.1541957e-18
1.6600375652907223e-09	-0.027259488	-0.11432013	-0.94419456	0	0	0.39	3.4481226e-18
1.670008849858582e-09	-0.036918644	-0.10547628	-0.9431546	0	0	0.39	4.18257e-18
1.6800520122930423e-09	-0.04705888	-0.100475	-0.942527	0	0	0.39	4.157873e-18
1.6900627697033143e-09	-0.05874222	-0.11513664	-0.9435851	0	0	0.39	4.1396556e-18
1.7000118925879983e-09	-0.065456	-0.13495228	-0.9374514	0	0	0.39	5.0505183e-18
1.7100484452961796e-09	-0.06679854	-0.114840485	-0.9437016	0	0	0.39	4.75017e-18
1.7200487483039285e-09	-0.064948246	-0.12304638	-0.9438513	0	0	0.39	4.175708e-18
1.7300245112859129e-09	-0.07187833	-0.10503953	-0.9439248	0	0	0.39	3.8872894e-18
1.7400130562315252e-09	-0.09589328	-0.0973457	-0.94138926	0	0	0.39	4.735866e-18
1.750050468884273e-09	-0.08473734	-0.098288774	-0.9419063	0	0	0.39	5.145623e-18
1.7600529777286695e-09	-0.10026323	-0.10057797	-0.94074935	0	0	0.39	4.7503336e-18
1.7700322697710465e-09	-0.10160513	-0.095972665	-0.9385364	0	0	0.39	4.5677687e-18
1.7800199531154604e-09	-0.09877921	-0.102027975	-0.9377554	0	0	0.39	4.688759e-18
1.7900531659449814e-09	-0.09283186	-0.11842696	-0.9384029	0	0	0.39	4.607951e-18
1.8000550958395075e-09	-0.08955753	-0.11336747	-0.9404171	0	0	0.39	4.2157756e-18
1.8100144264988492e-09	-0.10362833	-0.109460935	-0.9357397	0	0	0.39	3.4501714e-18
1.820026490392796e-09	-0.10293001	-0.09756071	-0.94157284	0	0	0.39	4.708745e-18
1.8300234970252312e-09	-0.12033804	-0.08545821	-0.9407861	0	0	0.39	3.9677277e-18
1.8400665786066088e-09	-0.11375934	-0.06293924	-0.9396801	0	0	0.39	4.638514e-18
1.8500109847858792e-09	-0.11538348	-0.046174426	-0.93915135	0	0	0.39	5.3621785e-18
1.860054659090625e-09	-0.11424603	-0.051626895	-0.9364533	0	0	0.39	4.3912363e-18
1.870033925107681e-09	-0.105175585	-0.05311268	-0.929657	0	0	0.39	4.6963994e-18
1.8800046180379487e-09	-0.10685694	-0.094274886	-0.9231054	0	0	0.39	4.9868755e-18
1.8900626692885363e-09	-0.13226648	-0.09386401	-0.9242652	0	0	0.39	4.523282e-18
1.9000290439409332e-09	-0.14842367	-0.094076276	-0.9205734	0	0	0.39	4.6872864e-18
1.910008351424803e-09	-0.1613956	-0.099934116	-0.9195572	0	0	0.39	4.3435287e-18
1.9200007755416972e-09	-0.17123382	-0.07987286	-0.92166704	0	0	0.39	4.883154e-18
1.930063527980233e-09	-0.16720992	-0.07802666	-0.919539	0	0	0.39	4.3793655e-18
1.9400237042845607e-09	-0.15823762	-0.07148682	-0.9191305	0	0	0.39	4.2038965e-18
1.950032393945193e-09	-0.15672031	-0.06420332	-0.92668146	0	0	0.39	4.891807e-18
1.960019709051828e-09	-0.13817425	-0.055192683	-0.92969954	0	0	0.39	3.698211e-18
1.9700350728645233e-09	-0.13364065	-0.04885962	-0.93500155	0	0	0.39	5.546668e-18
1.9800098223905024e-09	-0.13749218	-0.034611475	-0.9310452	0	0	0.39	5.0745566e-18
1.9900575060871705e-09	-0.11595013	-0.04021221	-0.93645203	0	0	0.39	4.5964652e-18
2.000053166362311e-09	-0.12576368	-0.051268283	-0.9345728	0	0	0.39	4.2010894e-18
2.0100569505041834e-09	-0.12776011	-0.04823395	-0.9360469	0	0	0.39	4.4779948e-18
2.0200648381069457e-09	-0.14460336	-0.027399033	-0.92821383	0	0	0.39	4.6215214e-18
2.030059793934277e-09	-0.13297255	-0.028463298	-0.92941344	0	0	0.39	4.70531e-18
2.0400353827454542e-09	-0.15086524	-0.037697002	-0.92615753	0	0	0.39	4.0494164e-18
2.0500548384723136e-09	-0.13851093	-0.048785605	-0.9227937	0	0	0.39	3.6215952e-18
2.06003403554788e-09	-0.14438553	-0.04211546	-0.92040837	0	0	0.39	4.6156025e-18
2.0700281058556103e-09	-0.1306592	-0.039271433	-0.9204553	0	0	0.39	4.7067334e-18
2.0800104023936624e-09	-0.13272898	-0.03975109	-0.9197528	0	0	0.39	4.834476e-18
2.09000687507298e-09	-0.1509338	-0.045968574	-0.9192595	0	0	0.39	4.0916506e-18
2.100060208119961e-09	-0.17889874	-0.04411764	-0.9213401	0	0	0.39	4.5473162e-18
2.1100118402963426e-09	-0.18965286	-0.0369113	-0.92106307	0	0	0.39	5.03529e-18
2.120035261915433e-09	-0.18539657	-0.018087942	-0.924107	0	0	0.39	5.3472785e-18
2.1300610631193595e-09	-0.17539114	-0.018002179	-0.9259316	0	0	0.39	4.532346e-18
2.140051816554561e-09	-0.16144016	-0.016083905	-0.9238779	0	0	0.39	4.9573153e-18
2.1500071340955593e-09	-0.15477833	-0.026763953	-0.92682284	0	0	0.39	3.743491e-18
2.160037278137588e-09	-0.15664184	-0.031705543	-0.92663485	0	0	0.39	3.5667213e-18
2.1700192558307685e-09	-0.1643093	-0.032676313	-0.92415047	0	0	0.39	4.647507e-18
2.18004407007843e-09	-0.16218819	-0.020767659	-0.9248686	0	0	0.39	4.5712023e-18
2.190043552730868e-09	-0.17561021	-0.019223282	-0.92502093	0	0	0.39	3.72993e-18
2.200011437257103e-09	-0.19153316	-0.029393036	-0.9203629	0	0	0.39	3.6185603e-18
2.2100595139183357e-09	-0.20916563	-0.018682452	-0.9171918	0	0	0.39	4.483356e-18
2.2200541254591192e-09	-0.21174268	-0.0135877	-0.9176331	0	0	0.39	5.521294e-18
2.2300181883713175e-09	-0.22291546	0.0061623896	-0.92271656	0	0	0.39	4.880653e-18
2.2400269019251847e-09	-0.20643926	0.014378764	-0.93074703	0	0	0.39	4.112889e-18
2.2500181144835937e-09	-0.19829479	0.023212992	-0.9271372	0	0	0.39	4.0906025e-18
2.260015390059469e-09	-0.20648761	0.014872663	-0.9252679	0	0	0.39	5.4102716e-18
2.2700011808832772e-09	-0.21175139	0.012349732	-0.92878985	0	0	0.39	5.360814e-18
2.280042068129501e-09	-0.21062583	0.0155548155	-0.9273844	0	0	0.39	3.95504e-18
2.2900547651462273e-09	-0.22890435	0.04092947	-0.92299426	0	0	0.39	4.919661e-18
2.3000309814914085e-09	-0.21059906	0.051857505	-0.92395455	0	0	0.39	4.683539e-18
2.310023167791018e-09	-0.22079943	0.0676006	-0.9240768	0	0	0.39	4.314685e-18
2.320058950419013e-09	-0.2219971	0.06629419	-0.9224558	0	0	0.39	5.1667616e-18
2.3300277388893677e-09	-0.2193228	0.062447786	-0.92298716	0	0	0.39	4.661859e-18
2.340056009005352e-09	-0.22532871	0.06463874	-0.91870445	0	0	0.39	4.836645e-18
2.350002021656797e-09	-0.21938275	0.04167989	-0.9203583	0	0	0.39	4.8441467e-18
2.3600562079845576e-09	-0.2387395	0.030472077	-0.91478676	0	0	0.39	4.294181e-18
2.3700595310356166e-09	-0.24686159	0.031521387	-0.91712147	0	0	0.39	4.6317805e-18
2.380012270908864e-09	-0.24826692	0.0286841	-0.91661495	0	0	0.39	4.8636537e-18
2.3900157056607086e-09	-0.25729302	0.02608537	-0.91544867	0	0	0.39	3.803971e-18
2.400032763662529e-09	-0.2646767	0.037826248	-0.91071844	0	0	0.39	5.046912e-18
2.4100388661842773e-09	-0.26071686	0.018915407	-0.91603875	0	0	0.39	4.4156986e-18
2.4200251758712016e-09	-0.26796064	0.016309021	-0.9112659	0	0	0.39	4.1471904e-18
2.430014076028337e-09	-0.26186082	0.018557971	-0.90371525	0	0	0.39	4.6988967e-18
2.4400643570693594e-09	-0.24569696	-0.017844908	-0.90880513	0	0	0.39	3.9786494e-18
2.4500111341265722e-09	-0.24328895	-0.02094367	-0.9036715	0	0	0.39	5.257316e-18
2.460010313246816e-09	-0.26922926	-0.026066644	-0.9089554	0	0	0.39	4.569562e-18
2.470039062263789e-09	-0.26892525	-0.015454158	-0.9092439	0	0	0.39	5.4165127e-18
2.4800393953198103e-09	-0.27321556	-0.013790807	-0.90817946	0	0	0.39	4.196263e-18
2.4900492216263355e-09	-0.2851457	0.0131821	-0.9107914	0	0	0.39	4.219046e-18
2.500033450198548e-09	-0.27774438	0.034286134	-0.9074551	0	0	0.39	5.8005792e-18
2.5100152443527103e-09	-0.25445446	0.04989048	-0.9104986	0	0	0.39	5.2779843e-18
2.5200304397436277e-09	-0.2501943	0.038179077	-0.91417056	0	0	0.39	5.718825e-18
2.5300098790374905e-09	-0.26346162	0.027431512	-0.9113117	0	0	0.39	4.4828057e-18
2.5400509042780106e-09	-0.27654478	0.03463169	-0.90535146	0	0	0.39	5.0454415e-18
2.5500189357583813e-09	-0.28395793	0.028920729	-0.89824414	0	0	0.39	4.2497405e-18
2.560033694726706e-09	-0.28957322	0.016642842	-0.89729375	0	0	0.39	4.0150536e-18
2.5700386166750677e-09	-0.29246125	-0.0014985019	-0.8930413	0	0	0.39	4.370941e-18
2.58000778552085e-09	-0.29855746	0.0037810956	-0.89301765	0	0	0.39	4.8838683e-18
2.590006938390156e-09	-0.2957266	0.00351005	-0.89524096	0	0	0.39	4.025636e-18
2.6000153125418593e-09	-0.3012132	0.0021674621	-0.89863324	0	0	0.39	3.7841213e-18
2.6100331936944974e-09	-0.2951708	0.01632113	-0.900211	0	0	0.39	5.0417068e-18
2.6200644574127674e-09	-0.2961566	0.013510067	-0.9000831	0	0	0.39	4.6778958e-18
2.6300585785778844e-09	-0.28297698	0.020738982	-0.89972013	0	0	0.39	4.686727e-18
2.640056583189042e-09	-0.26262763	0.00991881	-0.9048935	0	0	0.39	4.944844e-18
2.6500491323891594e-09	-0.24342334	-0.011381973	-0.9057807	0	0	0.39	4.375515e-18
2.6600009108764186e-09	-0.25932336	-0.0068232613	-0.90256923	0	0	0.39	5.124839e-18
2.67002859433726e-09	-0.27303416	0.012903909	-0.89422286	0	0	0.39	5.8326767e-18
2.680037604528936e-09	-0.27142066	0.028358884	-0.9021171	0	0	0.39	4.383846e-18
2.6900092943215102e-09	-0.28902403	0.06370174	-0.8962244	0	0	0.39	4.194682e-18
2.7000082476930197e-09	-0.29499778	0.07417204	-0.8953395	0	0	0.39	3.6636388e-18
2.7100479680254273e-09	-0.29185343	0.083440825	-0.8980826	0	0	0.39	5.0771502e-18
2.7200132815186057e-09	-0.27415413	0.09262326	-0.90115017	0	0	0.39	4.8287384e-18
2.7300535810989416e-09	-0.28054017	0.09256517	-0.89423597	0	0	0.39	3.9835e-18
2.7400234801283656e-09	-0.2624002	0.08667317	-0.8909541	0	0	0.39	5.412182e-18
2.7500177633572096e-09	-0.2556565	0.063549206	-0.8936632	0	0	0.39	5.263792e-18
2.7600042585232815e-09	-0.25948396	0.055576466	-0.9007361	0	0	0.39	4.459977e-18
2.770028531310916e-09	-0.2681342	0.03177448	-0.89492136	0	0	0.39	4.279007e-18
2.780027123692343e-09	-0.27191454	0.043764647	-0.89668703	0	0	0.39	4.919778e-18
2.790052610964882e-09	-0.27524367	0.045200218	-0.8953586	0	0	0.39	4.7071085e-18
2.8000534691407546e-09	-0.2673544	0.06411564	-0.8973905	0	0	0.39	5.0047976e-18
2.810064648699381e-09	-0.25570288	0.07272185	-0.90295726	0	0	0.39	4.411194e-18
2.820050128070271e-09	-0.24883816	0.09302442	-0.90463775	0	0	0.39	5.190866e-18
2.8300346029765753e-09	-0.22117765	0.08773255	-0.90776753	0	0	0.39	4.9432355e-18
2.8400529182813984e-09	-0.2229216	0.07549283	-0.9029316	0	0	0.39	4.080329e-18
2.8500496238011882e-09	-0.22080146	0.05939933	-0.9034061	0	0	0.39	5.2492646e-18
2.860039746463814e-09	-0.22641475	0.051271353	-0.9050746	0	0	0.39	5.79167e-18
2.870014798609148e-09	-0.23725078	0.052348096	-0.9088605	0	0	0.39	4.575605e-18
2.8800497518774056e-09	-0.25466108	0.03880322	-0.9079115	0	0	0.39	4.7050765e-18
2.890019435207392e-09	-0.27653095	0.051780082	-0.9062483	0	0	0.39	4.8130625e-18
2.9000240976393913e-09	-0.27377295	0.06029984	-0.9014282	0	0	0.39	4.8997034e-18
2.9100254967661766e-09	-0.29294756	0.06220058	-0.8952226	0	0	0.39	4.0939356e-18
2.92004659301709e-09	-0.26959273	0.04398502	-0.8996447	0	0	0.39	5.2576547e-18
2.9300167881465134e-09	-0.2603228	0.020302314	-0.89932615	0	0	0.39	4.449796e-18
2.940017286381964e-09	-0.25005093	-0.0025533808	-0.89928126	0	0	0.39	4.357975e-18
2.950011278932992e-09	-0.24598426	-0.018168407	-0.8947031	0	0	0.39	4.3085352e-18
2.960015927387672e-09	-0.23422356	-0.021048114	-0.8951607	0	0	0.39	4.4606922e-18
2.970028889840657e-09	-0.2404456	-0.046378966	-0.8915691	0	0	0.39	4.414197e-18
2.980003690828817e-09	-0.25787133	-0.050248183	-0.89285386	0	0	0.39	3.502091e-18
2.9900290256833277e-09	-0.2461257	-0.027014636	-0.8972989	0	0	0.39	4.5851287e-18
3.0000534574385863e-09	-0.24759531	-0.037510347	-0.89588505	0	0	0.39	4.5748713e-18
3.010004501214843e-09	-0.2539818	-0.02929454	-0.8939942	0	0	0.39	4.9179366e-18
3.0200143543862554e-09	-0.23164748	-0.026223492	-0.90285844	0	0	0.39	4.064553e-18
3.0300260875036813e-09	-0.21893686	-0.03597522	-0.9057766	0	0	0.39	5.7153217e-18
3.040057790119291e-09	-0.22924356	-0.048297103	-0.9065532	0	0	0.39	5.420232e-18
3.050006468207845e-09	-0.23806602	-0.052500423	-0.91038764	0	0	0.39	4.669486e-18
3.060014604753411e-09	-0.24344455	-0.04536309	-0.91577	0	0	0.39	3.7799664e-18
3.0700250657892157e-09	-0.26112524	-0.053480234	-0.91030115	0	0	0.39	3.2154475e-18
3.0800578792965423e-09	-0.27455342	-0.063594446	-0.90954363	0	0	0.39	4.6386093e-18
3.090042864305014e-09	-0.2757434	-0.047811884	-0.90942234	0	0	0.39	4.2040276e-18
3.1000198761548763e-09	-0.29297405	-0.03502953	-0.9003999	0	0	0.39	5.263125e-18
3.1100098765237275e-09	-0.3026898	-0.0385162	-0.89257735	0	0	0.39	4.346418e-18
3.120014394467529e-09	-0.27809274	-0.021631293	-0.8933997	0	0	0.39	4.598786e-18
3.130050270174135e-09	-0.266918	-0.041706126	-0.890651	0	0	0.39	3.7558615e-18
3.1400240312461816e-09	-0.26848134	-0.053347185	-0.89329755	0	0	0.39	5.3870687e-18
3.1500609938393545e-09	-0.253306	-0.06088935	-0.9034874	0	0	0.39	3.4286556e-18
3.160008877253281e-09	-0.26140034	-0.080199644	-0.9025934	0	0	0.39	4.786434e-18
3.1700122303839773e-09	-0.27248412	-0.09493358	-0.89583236	0	0	0.39	5.4376413e-18
3.180039809959959e-09	-0.27499443	-0.10624958	-0.89901626	0	0	0.39	5.278089e-18
3.1900085020414823e-09	-0.28584754	-0.105478525	-0.89679295	0	0	0.39	5.51877e-18
3.2000052594806497e-09	-0.28478327	-0.095792964	-0.89705694	0	0	0.39	4.9469805e-18
3.2100190123324665e-09	-0.259933	-0.103922516	-0.9065901	0	0	0.39	5.1809788e-18
3.2200058689885806e-09	-0.2438602	-0.10177828	-0.91161615	0	0	0.39	3.9377383e-18
3.230006949320922e-09	-0.23673594	-0.101018846	-0.9108278	0	0	0.39	4.1517188e-18
3.2400395447098993e-09	-0.23212948	-0.099771425	-0.9123895	0	0	0.39	3.761849e-18
3.2500049220866414e-09	-0.22752595	-0.09830719	-0.91330826	0	0	0.39	4.5399188e-18
3.2600140251174822e-09	-0.2185817	-0.104839385	-0.91367406	0	0	0.39	4.506697e-18
3.2700397540949514e-09	-0.23640427	-0.08578739	-0.917471	0	0	0.39	4.5367746e-18
3.2800315832193277e-09	-0.23967047	-0.0945513	-0.9188943	0	0	0.39	4.3720276e-18
3.2900461667590955e-09	-0.24826027	-0.09652865	-0.91679734	0	0	0.39	4.658154e-18
3.3000027063440197e-09	-0.2517765	-0.096345015	-0.91525096	0	0	0.39	3.9894553e-18
3.3100627413597714e-09	-0.25339812	-0.10854559	-0.9147002	0	0	0.39	4.4684714e-18
3.3200042546453146e-09	-0.24135482	-0.084214404	-0.9173863	0	0	0.39	5.4257254e-18
3.3300048456251734e-09	-0.23429836	-0.07989179	-0.9217822	0	0	0.39	5.083987e-18
3.3400521256165384e-09	-0.22316802	-0.07414083	-0.9231157	0	0	0.39	5.398001e-18
3.3500045951360006e-09	-0.23072544	-0.057586215	-0.92526215	0	0	0.39	4.432982e-18
3.3600397708250617e-09	-0.22129108	-0.07163949	-0.9231887	0	0	0.39	4.846511e-18
3.3700430142955262e-09	-0.2287379	-0.05229436	-0.92465985	0	0	0.39	4.3979613e-18
3.3800600047617603e-09	-0.2342931	-0.045820545	-0.92218477	0	0	0.39	4.283515e-18
3.390033451265294e-09	-0.23896745	-0.04362655	-0.91896945	0	0	0.39	4.9808312e-18
3.400022378229047e-09	-0.25184572	-0.032114744	-0.9141767	0	0	0.39	5.4210394e-18
3.4100313206321167e-09	-0.24477601	-0.02529535	-0.9202837	0	0	0.39	4.7558088e-18
3.4200516557432586e-09	-0.24854054	-0.017770968	-0.9183993	0	0	0.39	4.750572e-18
3.4300389488703703e-09	-0.25921994	-0.020631738	-0.91964483	0	0	0.39	3.7911243e-18
3.4400425127271316e-09	-0.26032922	-0.003928943	-0.9217708	0	0	0.39	5.3402094e-18
3.4500046896311518e-09	-0.25600976	0.0027443364	-0.9231835	0	0	0.39	3.745392e-18
3.460046901006144e-09	-0.25063154	0.00033119277	-0.91801083	0	0	0.39	4.592785e-18
3.4700167757622695e-09	-0.22550179	0.0020238073	-0.91985965	0	0	0.39	5.0066695e-18
3.480027757070264e-09	-0.19548286	0.0053000026	-0.93136895	0	0	0.39	4.9800793e-18
3.4900474478761075e-09	-0.1981901	-0.0025722005	-0.9261134	0	0	0.39	4.0149506e-18
3.500000628015809e-09	-0.19223654	-0.01800478	-0.9315572	0	0	0.39	4.7599935e-18
3.5100259345283783e-09	-0.18563068	-0.028937913	-0.9326825	0	0	0.39	5.1815793e-18
3.520057732156772e-09	-0.18355793	-0.044487227	-0.9367054	0	0	0.39	3.6408235e-18
3.530032930400831e-09	-0.18842591	-0.024388986	-0.9357092	0	0	0.39	4.6177196e-18
3.5400528849582637e-09	-0.18152171	-0.007997247	-0.9378461	0	0	0.39	4.66887e-18
3.5500139047787136e-09	-0.16994755	0.010050045	-0.9355674	0	0	0.39	4.898257e-18
3.5600081196839056e-09	-0.16587721	-0.009968898	-0.9378601	0	0	0.39	4.2703245e-18
3.570061502785155e-09	-0.15988757	-0.0071423994	-0.93888277	0	0	0.39	5.2457214e-18
3.580046867297603e-09	-0.16273053	-0.0038817786	-0.93720555	0	0	0.39	5.732139e-18
3.5900314016246906e-09	-0.15777701	-0.003139221	-0.9409584	0	0	0.39	5.15602e-18
3.6000176803741873e-09	-0.15392086	-0.0037083344	-0.9438442	0	0	0.39	4.026534e-18
3.610059032023652e-09	-0.16142559	0.014189983	-0.94047236	0	0	0.39	3.908385e-18
3.6200577587659073e-09	-0.15998638	0.021850403	-0.936797	0	0	0.39	4.136643e-18
3.630034959182924e-09	-0.15682031	0.038331125	-0.93801594	0	0	0.39	5.515401e-18
3.640006956165566e-09	-0.1578205	0.05409417	-0.93483853	0	0	0.39	4.499606e-18
3.6500168978770422e-09	-0.13762087	0.060848143	-0.933547	0	0	0.39	3.66205e-18
3.660020630244413e-09	-0.12302834	0.044164337	-0.9323707	0	0	0.39	5.8260643e-18
3.670004494929248e-09	-0.11659954	0.03718651	-0.93689793	0	0	0.39	6.0855293e-18
3.6800038908897604e-09	-0.13789193	0.04148485	-0.9336069	0	0	0.39	4.188571e-18
3.6900152614904343e-09	-0.13411859	0.06494979	-0.9379927	0	0	0.39	3.7486986e-18
3.700028278501661e-09	-0.14163738	0.08678387	-0.9384585	0	0	0.39	4.417786e-18
3.71004293525706e-09	-0.16083562	0.093457624	-0.9319064	0	0	0.39	5.549205e-18