# t (s)	mx ()	my ()	mz ()	B_extx (T)	B_exty (T)	B_extz (T)	E_total (J)
0	0	0	-1	0	0	0.4	1.2498702e-18
1.0049832701161092e-11	-0.0025714722	0.013570492	-0.9756213	0	0	0.4	5.4773328e-18
2.0023715843388e-11	-0.0057195993	0.014328943	-0.9676496	0	0	0.4	4.306872e-18
3.003711807533604e-11	0.0053878464	0.014974251	-0.964952	0	0	0.4	4.8963898e-18
4.00105150712494e-11	0.021848937	0.010598541	-0.9653278	0	0	0.4	4.2310987e-18
5.002645469856874e-11	0.00674699	0.013981904	-0.96451765	0	0	0.4	4.6399613e-18
6.003079614574781e-11	-0.011925233	0.02882777	-0.9621077	0	0	0.4	5.6143374e-18
7.002031595143178e-11	-0.005311222	0.04283857	-0.9621322	0	0	0.4	5.0444336e-18
8.002457564025033e-11	-0.012872714	0.045620736	-0.9584994	0	0	0.4	4.4675665e-18
9.005064919868188e-11	-0.021978367	0.048673335	-0.9576177	0	0	0.4	4.492085e-18
1.0004803323038244e-10	-0.02778739	0.07678577	-0.9554581	0	0	0.4	4.434037e-18
1.1003256333287424e-10	-0.019946944	0.085444085	-0.95439494	0	0	0.4	4.251114e-18
1.2005880508480617e-10	-0.011473126	0.08300908	-0.9533125	0	0	0.4	4.0820912e-18
1.3003054294610572e-10	0.018932657	0.07253626	-0.95414925	0	0	0.4	5.193389e-18
1.4004089497328108e-10	0.025034348	0.08233977	-0.9498337	0	0	0.4	3.43667e-18
1.5003799844440764e-10	0.028926766	0.06305175	-0.94846106	0	0	0.4	5.291459e-18
1.600155341545279e-10	0.031138383	0.050478525	-0.9519729	0	0	0.4	3.2069927e-18
1.7004589199856187e-10	0.029582104	0.052829828	-0.9481632	0	0	0.4	5.1394688e-18
1.8004917863737892e-10	0.018709801	0.03256517	-0.95212084	0	0	0.4	4.2962487e-18
1.900554267100928e-10	0.030553568	0.03942266	-0.946954	0	0	0.4	5.787148e-18
2.000037647640626e-10	0.042307507	0.033135455	-0.9476505	0	0	0.4	4.563975e-18
2.1002156461065866e-10	0.07364241	0.039148726	-0.9444342	0	0	0.4	3.9885896e-18
2.2001215832552749e-10	0.08733972	0.047519084	-0.94683474	0	0	0.4	4.4808882e-18
2.300366881394918e-10	0.1025785	0.046122707	-0.94332975	0	0	0.4	4.4377884e-18
2.4001629882500935e-10	0.107344106	0.0380158	-0.9409218	0	0	0.4	4.808429e-18
2.500012703785246e-10	0.10564704	0.030465405	-0.941101	0	0	0.4	4.757202e-18
2.600500824581254e-10	0.10362754	0.034060817	-0.9448313	0	0	0.4	3.5093117e-18
2.7000755166462356e-10	0.08685424	0.022478543	-0.947066	0	0	0.4	5.2563093e-18
2.8002441872948865e-10	0.0992107	0.043922845	-0.94814956	0	0	0.4	5.0770894e-18
2.9002680909891534e-10	0.11012877	0.05032728	-0.94380033	0	0	0.4	3.300679e-18
3.000023444989583e-10	0.13031523	0.0488856	-0.94118285	0	0	0.4	4.394107e-18
3.100008164609435e-10	0.13287567	0.046622578	-0.93674695	0	0	0.4	4.552998e-18
3.2000558206222023e-10	0.13414037	0.049474403	-0.9360944	0	0	0.4	4.7092583e-18
3.300242245274672e-10	0.121106304	0.040674042	-0.93791777	0	0	0.4	4.8568187e-18
3.400091418153889e-10	0.122405045	0.033918314	-0.9415626	0	0	0.4	5.288813e-18
3.500564263115011e-10	0.13091236	0.019677164	-0.943032	0	0	0.4	4.956771e-18
3.600631686550857e-10	0.10865043	0.021606058	-0.93988276	0	0	0.4	5.1517934e-18
3.7003266969842067e-10	0.111937866	0.039769355	-0.94553196	0	0	0.4	4.0986034e-18
3.800642633425778e-10	0.11907881	0.04935725	-0.94613993	0	0	0.4	5.1764284e-18
3.9002603425675683e-10	0.11934424	0.039479844	-0.9443636	0	0	0.4	4.347552e-18
4.0001950124953994e-10	0.12598765	0.03206644	-0.9421788	0	0	0.4	3.929113e-18
4.1006019717650763e-10	0.11897986	0.027624087	-0.9427565	0	0	0.4	4.718946e-18
4.200542026792592e-10	0.11472237	0.038492907	-0.94335574	0	0	0.4	5.2724207e-18
4.300382335991931e-10	0.09987781	0.032511912	-0.9495109	0	0	0.4	4.522305e-18
4.40024817426125e-10	0.10095726	0.039411515	-0.95125383	0	0	0.4	4.0068753e-18
4.5000024096365345e-10	0.102706976	0.03277981	-0.94832003	0	0	0.4	4.016001e-18
4.600095172187532e-10	0.099329285	0.04501564	-0.94742197	0	0	0.4	5.090962e-18
4.700239297092991e-10	0.11424882	0.025934588	-0.9445256	0	0	0.4	4.1709205e-18
4.800166345341467e-10	0.10059445	0.014396336	-0.9440572	0	0	0.4	4.565438e-18
4.900108105593499e-10	0.097497195	3.1842388e-05	-0.94678193	0	0	0.4	3.9851965e-18
5.000392870602155e-10	0.07123326	0.004658091	-0.9465439	0	0	0.4	3.807124e-18
5.100660788842785e-10	0.07782661	-0.0010478473	-0.94241613	0	0	0.4	4.782122e-18
5.200427543769498e-10	0.08173863	3.212573e-05	-0.940294	0	0	0.4	4.718711e-18
5.300279796923481e-10	0.064894795	-0.0025470457	-0.94085485	0	0	0.4	5.4841297e-18
5.400101468069444e-10	0.0520392	-0.0043292656	-0.9404557	0	0	0.4	5.6558603e-18
5.500075591873613e-10	0.05308159	0.00021420089	-0.9446367	0	0	0.4	4.5175617e-18
5.600554566324306e-10	0.060547024	-0.022220287	-0.9430534	0	0	0.4	4.6790133e-18
5.700047280671113e-10	0.053190622	-0.015861968	-0.93929994	0	0	0.4	4.3300974e-18
5.800633830834905e-10	0.05548824	-0.012103754	-0.94525474	0	0	0.4	3.9474606e-18
5.900578933092805e-10	0.051187627	-0.0071298922	-0.946606	0	0	0.4	4.5980654e-18
6.00019456636322e-10	0.050887056	-0.016262544	-0.9472898	0	0	0.4	4.3555456e-18
6.100267493900356e-10	0.044047266	-0.028372303	-0.9496466	0	0	0.4	5.052065e-18
6.200564560083357e-10	0.040941305	-0.021103142	-0.95239556	0	0	0.4	4.725871e-18
6.300528584757982e-10	0.041556448	-0.020242311	-0.95157355	0	0	0.4	3.01299e-18
6.400218608305551e-10	0.0358789	-0.03585522	-0.9556507	0	0	0.4	4.4161883e-18
6.500632943513517e-10	0.0094807325	-0.056431416	-0.9533225	0	0	0.4	4.643833e-18
6.600341634077102e-10	-0.0026975852	-0.060229823	-0.9506137	0	0	0.4	4.527215e-18
6.700017523564621e-10	0.0037110238	-0.060929388	-0.9496779	0	0	0.4	4.8105313e-18
6.800111586586076e-10	0.006147018	-0.06089486	-0.9446178	0	0	0.4	4.680553e-18
6.900240934642264e-10	-0.0024232583	-0.059282478	-0.94444853	0	0	0.4	4.2399318e-18
7.000487024142581e-10	-0.0050533605	-0.069665305	-0.9469788	0	0	0.4	4.8675038e-18
7.100276103107673e-10	-0.022076169	-0.088707946	-0.9411102	0	0	0.4	4.780846e-18
7.200292331353031e-10	-0.026140546	-0.104937285	-0.9390869	0	0	0.4	5.038865e-18
7.300184739305368e-10	-0.046901863	-0.08598078	-0.942184	0	0	0.4	4.2748475e-18
7.400028013757579e-10	-0.0587079	-0.090337746	-0.9438135	0	0	0.4	5.563373e-18
7.500363529777778e-10	-0.08856597	-0.07138613	-0.94613004	0	0	0.4	4.360845e-18
7.600523571577641e-10	-0.10684236	-0.0512407	-0.94512856	0	0	0.4	4.081166e-18
7.700400923922783e-10	-0.08998626	-0.07477397	-0.94607407	0	0	0.4	3.9325994e-18
7.800175688979898e-10	-0.10557879	-0.08025883	-0.94212997	0	0	0.4	4.7147413e-18
7.900225901781918e-10	-0.10003299	-0.08352614	-0.9413523	0	0	0.4	4.626825e-18
8.000358305217973e-10	-0.08922465	-0.08659716	-0.93436676	0	0	0.4	4.5462335e-18
8.100218626639237e-10	-0.09618289	-0.06989644	-0.9336922	0	0	0.4	5.579199e-18
8.200399711651759e-10	-0.09990222	-0.08673647	-0.92782575	0	0	0.4	4.7429614e-18
8.300414604845078e-10	-0.10176564	-0.08391146	-0.92592424	0	0	0.4	4.667078e-18
8.400267500644582e-10	-0.10597417	-0.082495965	-0.92954034	0	0	0.4	5.309029e-18
8.500305239955141e-10	-0.10019291	-0.057102147	-0.9316357	0	0	0.4	5.074865e-18
8.60021507302632e-10	-0.0891013	-0.052108202	-0.93587416	0	0	0.4	4.05532e-18
8.700003969969289e-10	-0.08783219	-0.07122571	-0.9337489	0	0	0.4	5.1947315e-18
8.800261402522356e-10	-0.08021085	-0.072507344	-0.93747777	0	0	0.4	3.8156882e-18
8.900356069771712e-10	-0.06704461	-0.0809676	-0.9387377	0	0	0.4	4.3176557e-18
9.000055402002282e-10	-0.0845061	-0.09948674	-0.9365101	0	0	0.4	4.42624e-18
9.100522337933116e-10	-0.09247025	-0.08907196	-0.9339332	0	0	0.4	4.5451064e-18
9.200547567977941e-10	-0.08719772	-0.078264154	-0.9372258	0	0	0.4	4.299109e-18
9.30048045569709e-10	-0.07103523	-0.080298044	-0.94226027	0	0	0.4	4.6821793e-18
9.400410563451376e-10	-0.08139287	-0.06602339	-0.9396842	0	0	0.4	3.8650395e-18
9.500379168251e-10	-0.0789004	-0.057977103	-0.9380377	0	0	0.4	4.9537523e-18
9.600274932428334e-10	-0.078056425	-0.06519717	-0.93183845	0	0	0.4	4.3628835e-18
9.700509949865372e-10	-0.073340654	-0.07957851	-0.93171895	0	0	0.4	4.6727085e-18
9.800211117016053e-10	-0.065915234	-0.09348271	-0.93849146	0	0	0.4	4.0867756e-18
9.900514643665775e-10	-0.07647576	-0.09981174	-0.9382234	0	0	0.4	4.4669713e-18
1.0000066045639462e-09	-0.10015581	-0.08860403	-0.9341115	0	0	0.4	4.907192e-18
1.0100329163164198e-09	-0.10201767	-0.069059655	-0.9385846	0	0	0.4	4.8379875e-18
1.0200639318896275e-09	-0.089328185	-0.060107622	-0.94198555	0	0	0.4	3.7358876e-18
1.0300227390856947e-09	-0.07727424	-0.068807825	-0.94253683	0	0	0.4	4.5512726e-18
1.0400448772645243e-09	-0.054687392	-0.053329166	-0.94965094	0	0	0.4	4.4663377e-18
1.050048582617044e-09	-0.057888288	-0.0745365	-0.9480505	0	0	0.4	4.3494447e-18
1.060061036948845e-09	-0.07022389	-0.08458297	-0.9433177	0	0	0.4	4.772235e-18
1.0700427975031578e-09	-0.07308462	-0.11339317	-0.93736047	0	0	0.4	4.031925e-18
1.080035104356998e-09	-0.072710484	-0.10973035	-0.9401737	0	0	0.4	5.40696e-18
1.0900092248438043e-09	-0.092766166	-0.111798696	-0.94155014	0	0	0.4	4.6373792e-18
1.1000593607742012e-09	-0.10177937	-0.10304529	-0.94277257	0	0	0.4	3.4233639e-18
1.1100222881502822e-09	-0.10256976	-0.08525138	-0.9387216	0	0	0.4	3.889175e-18
1.1200409275448717e-09	-0.10400899	-0.06986923	-0.9346188	0	0	0.4	4.2350303e-18
1.130020887739169e-09	-0.09915671	-0.07188362	-0.93507063	0	0	0.4	3.9404523e-18
1.1400533070544265e-09	-0.084649175	-0.078854255	-0.93623	0	0	0.4	4.2388986e-18
1.150002174963937e-09	-0.08354234	-0.08501535	-0.9343993	0	0	0.4	4.115092e-18
1.1600574449583669e-09	-0.076838925	-0.101793766	-0.9266377	0	0	0.4	4.4053398e-18
1.170050024920115e-09	-0.10736582	-0.116045535	-0.9241879	0	0	0.4	3.4729745e-18
1.1800645927352953e-09	-0.11845241	-0.120042905	-0.928339	0	0	0.4	4.2478913e-18
1.190061616682697e-09	-0.13453116	-0.11906136	-0.9216211	0	0	0.4	5.062942e-18
1.2000078778572829e-09	-0.15515421	-0.116374746	-0.92289305	0	0	0.4	5.2489796e-18
1.2100185053540614e-09	-0.16610752	-0.11560159	-0.9263806	0	0	0.4	5.3228092e-18
1.2200259458534918e-09	-0.13963227	-0.11748354	-0.9289712	0	0	0.4	4.4338374e-18
1.2300540053446562e-09	-0.132077	-0.12801197	-0.9326825	0	0	0.4	4.998868e-18
1.2400473998020605e-09	-0.12792844	-0.12856118	-0.9324366	0	0	0.4	4.239037e-18
1.2500525027474345e-09	-0.12203323	-0.116364606	-0.9368896	0	0	0.4	4.1964142e-18
1.2600162219055494e-09	-0.1275625	-0.11624811	-0.9360027	0	0	0.4	4.8217826e-18
1.2700576151634367e-09	-0.13404219	-0.119333334	-0.93302065	0	0	0.4	4.9270633e-18
1.280044489541028e-09	-0.14525796	-0.11273396	-0.9279708	0	0	0.4	3.984488e-18
1.2900251965547721e-09	-0.14640571	-0.10414404	-0.93104124	0	0	0.4	4.6222063e-18
1.3000204606207951e-09	-0.16194396	-0.09831604	-0.9282883	0	0	0.4	4.135585e-18
1.3100094859276185e-09	-0.12653665	-0.09630941	-0.93093735	0	0	0.4	4.4593278e-18
1.3200085264249832e-09	-0.1310923	-0.09887995	-0.93018466	0	0	0.4	5.016491e-18
1.330056615605357e-09	-0.12014558	-0.10341931	-0.93396926	0	0	0.4	4.0344332e-18
1.3400206547780213e-09	-0.11456705	-0.10449712	-0.9363894	0	0	0.4	3.9539333e-18
1.3500614394199708e-09	-0.13258302	-0.10433599	-0.93876755	0	0	0.4	3.82269e-18
1.3600136127695094e-09	-0.13569337	-0.090443455	-0.93977123	0	0	0.4	5.068165e-18
1.3700530794658898e-09	-0.14987253	-0.079912536	-0.9393046	0	0	0.4	4.822239e-18
1.3800279182004908e-09	-0.15075423	-0.066749364	-0.9395179	0	0	0.4	4.9581884e-18
1.3900355766599845e-09	-0.15126482	-0.050304662	-0.9439016	0	0	0.4	3.928962e-18
1.400021303774014e-09	-0.15441394	-0.04390958	-0.9390415	0	0	0.4	5.1136434e-18
1.4100199860976084e-09	-0.14955126	-0.049671315	-0.93769526	0	0	0.4	5.0197795e-18
1.4200532058357065e-09	-0.16087815	-0.042274613	-0.93340206	0	0	0.4	5.2525493e-18
1.430063203756441e-09	-0.1626455	-0.04887142	-0.93398386	0	0	0.4	5.2023093e-18
1.4400565373717746e-09	-0.16360049	-0.055676058	-0.9338401	0	0	0.4	4.721974e-18
1.4500547960518697e-09	-0.16202034	-0.049154762	-0.9349359	0	0	0.4	4.0764507e-18
1.4600278781355964e-09	-0.16017722	-0.03929261	-0.937414	0	0	0.4	4.156652e-18
1.4700145312380417e-09	-0.13667148	-0.039463427	-0.9376095	0	0	0.4	5.1376424e-18
1.4800261005110319e-09	-0.17096825	-0.033471856	-0.9329872	0	0	0.4	4.4673605e-18
1.4900215276183276e-09	-0.18576437	-0.030770987	-0.9302607	0	0	0.4	5.100545e-18
1.5000418089262196e-09	-0.19109061	-0.030041298	-0.9312537	0	0	0.4	4.4326247e-18
1.510006841826015e-09	-0.18752111	-0.040483218	-0.9288509	0	0	0.4	5.2326833e-18
1.5200451176289181e-09	-0.155506	-0.043471523	-0.9341083	0	0	0.4	4.2052233e-18
1.530035051332942e-09	-0.14928521	-0.052692864	-0.93450403	0	0	0.4	4.9521165e-18
1.5400647587312388e-09	-0.13836902	-0.053035736	-0.9304905	0	0	0.4	4.7864707e-18
1.5500126032320282e-09	-0.14546722	-0.043562543	-0.9302956	0	0	0.4	5.005176e-18
1.5600374382005094e-09	-0.16125832	-0.03728681	-0.9272528	0	0	0.4	5.3364685e-18
1.5700115964181637e-09	-0.18527775	-0.037852887	-0.92609185	0	0	0.4	5.1177367e-18
1.5800210238670862e-09	-0.18618676	-0.023098944	-0.9267059	0	0	0.4	4.6745573e-18
1.5900391708659475e-09	-0.17617	-0.008314946	-0.9304205	0	0	0.4	5.0324994e-18
1.6000534675115667e-09	-0.16570064	0.008897631	-0.93496764	0	0	0.4	5.4538148e-18
1.6100588194279178e-09	-0.15612003	9.548488e-05	-0.92716026	0	0	0.4	4.255084e-18
1.6200463547830576e-09	-0.15452048	0.011884591	-0.92430496	0	0	0.4	4.926996e-18
1.6300003350537319e-09	-0.14860696	-0.018898701	-0.92952216	0	0	0.4	4.514879e-18
1.6400067976297127e-09	-0.16654728	-0.0472034	-0.9236578	0	0	0.4	4.2731356e-18
1.6500521473230872e-09	-0.1677862	-0.04299763	-0.92360365	0	0	0.4	4.1958062e-18
1.6600269528031612e-09	-0.17292346	-0.03331999	-0.91657275	0	0	0.4	4.0748675e-18
1.6700579866714416e-09	-0.19496946	-0.022812646	-0.9109777	0	0	0.4	4.5050494e-18
1.6800063334549656e-09	-0.19715522	-0.048917368	-0.9119159	0	0	0.4	3.6572252e-18
1.6900143552994542e-09	-0.20213503	-0.049036253	-0.90466654	0	0	0.4	4.7848804e-18
1.7000335524433338e-09	-0.2044885	-0.058019336	-0.90336055	0	0	0.4	3.9694015e-18
1.7100188062432297e-09	-0.20134054	-0.05941779	-0.9022614	0	0	0.4	5.1454034e-18
1.7200472808041192e-09	-0.20523411	-0.062569715	-0.89642143	0	0	0.4	5.2697505e-18
1.730029854281332e-09	-0.18668237	-0.066224076	-0.8914642	0	0	0.4	5.402263e-18
1.740051636742404e-09	-0.16651139	-0.09477362	-0.88843673	0	0	0.4	3.8838334e-18
1.7500630068206581e-09	-0.16002375	-0.12888066	-0.87994653	0	0	0.4	4.4908053e-18
1.7600609488993807e-09	-0.15859048	-0.15409498	-0.88180494	0	0	0.4	5.3361765e-18
1.7700498974617093e-09	-0.15779586	-0.1766099	-0.88960785	0	0	0.4	4.4427647e-18
1.7800614206127817e-09	-0.15392342	-0.16945855	-0.8964506	0	0	0.4	5.312259e-18
1.7900443061435489e-09	-0.1721504	-0.16944675	-0.8968419	0	0	0.4	3.655596e-18
1.8000377198836023e-09	-0.17260243	-0.16152366	-0.89410824	0	0	0.4	4.348604e-18
1.8100187357251855e-09	-0.15559892	-0.16113405	-0.89968765	0	0	0.4	3.836845e-18
1.8200509851807666e-09	-0.16596387	-0.14960523	-0.8999725	0	0	0.4	5.031084e-18
1.8300161909668315e-09	-0.13256842	-0.14398624	-0.90717876	0	0	0.4	4.7638837e-18
1.8400597649317264e-09	-0.10577699	-0.14050683	-0.9138488	0	0	0.4	3.1667094e-18
1.8500488492352666e-09	-0.073407255	-0.15615584	-0.9145268	0	0	0.4	5.2331846e-18
1.8600074901715098e-09	-0.053624026	-0.1849042	-0.915283	0	0	0.4	5.1004916e-18
1.870027433460999e-09	-0.05864215	-0.21037076	-0.9148926	0	0	0.4	4.755069e-18
1.880047154549779e-09	-0.08299686	-0.22016628	-0.9157386	0	0	0.4	4.800879e-18
1.8900325699010332e-09	-0.08900382	-0.21862793	-0.9177182	0	0	0.4	4.4250478e-18
1.900014273708509e-09	-0.09508661	-0.20916948	-0.91175133	0	0	0.4	4.468766e-18
1.9100517106237417e-09	-0.11198781	-0.19603096	-0.91053313	0	0	0.4	5.4767955e-18
1.920030127502361e-09	-0.09336349	-0.18889415	-0.90521884	0	0	0.4	4.0258516e-18
1.9300186057014076e-09	-0.094874874	-0.16878346	-0.9058492	0	0	0.4	5.4873255e-18
1.9400579487962026e-09	-0.062150743	-0.16131453	-0.90694845	0	0	0.4	4.6512192e-18
1.9500325769863726e-09	-0.024922995	-0.15998766	-0.9034476	0	0	0.4	4.1434457e-18
1.960037370356162e-09	0.004649538	-0.16935796	-0.90146756	0	0	0.4	4.851901e-18
1.9700615785796256e-09	0.022403872	-0.18751252	-0.8958038	0	0	0.4	4.6182242e-18
1.980046693679064e-09	0.026758257	-0.19389126	-0.8986999	0	0	0.4	4.7611313e-18
1.9900423051490014e-09	0.047572836	-0.2026666	-0.897272	0	0	0.4	4.7875994e-18
2.000004636848051e-09	0.058742847	-0.20855401	-0.9009037	0	0	0.4	4.2557702e-18
2.0100209185894486e-09	0.059300825	-0.21392533	-0.8921085	0	0	0.4	4.570723e-18
2.020052018243404e-09	0.06445675	-0.20972167	-0.8849812	0	0	0.4	5.2763254e-18
2.0300408039726176e-09	0.08808816	-0.19469185	-0.8873783	0	0	0.4	4.8298104e-18
2.0400242632705995e-09	0.097788	-0.18607879	-0.89846057	0	0	0.4	4.4531487e-18
2.0500490098984184e-09	0.14505239	-0.17810754	-0.8942659	0	0	0.4	4.9445916e-18
2.0600521826045803e-09	0.17781506	-0.17684196	-0.8969383	0	0	0.4	4.921725e-18
2.0700645140826573e-09	0.2018381	-0.18106525	-0.8975346	0	0	0.4	4.401502e-18
2.080002304372482e-09	0.2118629	-0.19253157	-0.88758594	0	0	0.4	3.9636745e-18
2.0900647576464125e-09	0.21391936	-0.1877052	-0.8947551	0	0	0.4	4.2688864e-18
2.1000240174203004e-09	0.2192609	-0.19876193	-0.895603	0	0	0.4	4.842673e-18
2.1100578385293282e-09	0.19428208	-0.19891031	-0.90143466	0	0	0.4	4.381809e-18
2.1200536993816997e-09	0.20041904	-0.17971364	-0.8985167	0	0	0.4	4.9339177e-18
2.1300225862890624e-09	0.20347726	-0.14892119	-0.9019261	0	0	0.4	4.375244e-18
2.1400561033054796e-09	0.19742757	-0.13739808	-0.899125	0	0	0.4	4.5115535e-18
2.1500281880818367e-09	0.21905531	-0.12447245	-0.895636	0	0	0.4	4.4435832e-18
2.16000459924306e-09	0.24649547	-0.120021194	-0.89322156	0	0	0.4	4.119194e-18
2.1700174999593726e-09	0.25627702	-0.13388452	-0.89938235	0	0	0.4	3.88316e-18
2.1800088124114164e-09	0.28072283	-0.13781354	-0.89254147	0	0	0.4	3.942422e-18
2.1900607628877337e-09	0.29994884	-0.12980114	-0.88813215	0	0	0.4	4.8258205e-18
2.2000357008929684e-09	0.29378876	-0.13967477	-0.88419676	0	0	0.4	5.0819317e-18
2.210053545966523e-09	0.2975139	-0.13601606	-0.8836894	0	0	0.4	4.086203e-18
2.22003712424041e-09	0.29466748	-0.13065167	-0.87860715	0	0	0.4	5.616831e-18
2.230064174328852e-09	0.29240814	-0.09292517	-0.88075984	0	0	0.4	4.579149e-18
2.2400511169850825e-09	0.30232346	-0.07505821	-0.87735814	0	0	0.4	5.0163454e-18
2.2500247814936548e-09	0.3144564	-0.057287034	-0.87669295	0	0	0.4	4.614305e-18
2.2600545430996648e-09	0.31252894	-0.026643645	-0.8786397	0	0	0.4	4.311032e-18
2.2700398263169775e-09	0.31167662	-0.0018408592	-0.87735224	0	0	0.4	5.2411264e-18
2.280034128319004e-09	0.3350821	0.016907241	-0.8733694	0	0	0.4	5.312523e-18
2.2900140761260026e-09	0.34222138	0.03680384	-0.86735564	0	0	0.4	4.5972717e-18
2.300036592190515e-09	0.33672234	0.0524572	-0.8656522	0	0	0.4	5.159941e-18
2.310060719972142e-09	0.31651893	0.06543519	-0.8665585	0	0	0.4	4.9563976e-18
2.3200534013276384e-09	0.31363294	0.06468787	-0.86290497	0	0	0.4	5.3484882e-18
2.330026747425493e-09	0.2929958	0.059859503	-0.86769587	0	0	0.4	4.5264034e-18
2.340053498947111e-09	0.28785622	0.07288698	-0.86141455	0	0	0.4	4.1932523e-18
2.35001917754377e-09	0.26147404	0.09443258	-0.85630745	0	0	0.4	4.605611e-18
2.3600563103124345e-09	0.21755657	0.12552227	-0.85688895	0	0	0.4	4.0008083e-18
2.370006312341634e-09	0.20136937	0.1695003	-0.8475142	0	0	0.4	4.612189e-18
2.38004141580792e-09	0.1834588	0.21474229	-0.84547824	0	0	0.4	4.3769456e-18
2.3900030676873147e-09	0.14648743	0.24449785	-0.84375715	0	0	0.4	3.8201037e-18
2.40001389673471e-09	0.13292895	0.28097263	-0.8352448	0	0	0.4	4.430731e-18
2.4100177037061393e-09	0.111841895	0.30516055	-0.8292498	0	0	0.4	3.7001216e-18
2.4200656102491116e-09	0.07590871	0.3149034	-0.8198901	0	0	0.4	4.4504228e-18
2.430010816899523e-09	0.008176912	0.30844045	-0.8067866	0	0	0.4	4.7854198e-18
2.440051623093648e-09	-0.06495854	0.2735344	-0.7958924	0	0	0.4	4.1929835e-18
2.450055836868683e-09	-0.14045127	0.17911765	-0.78143203	0	0	0.4	4.845475e-18
2.4600612935057834e-09	-0.19227372	0.070647076	-0.7703465	0	0	0.4	4.8022616e-18
2.470019662794195e-09	-0.24745011	-0.034530472	-0.76707345	0	0	0.4	4.288828e-18
2.480054265962113e-09	-0.2257442	-0.15318869	-0.7682113	0	0	0.4	4.568975e-18
2.4900078672417154e-09	-0.15854381	-0.26420897	-0.7531439	0	0	0.4	4.8966664e-18
2.500062961075656e-09	-0.07256649	-0.31493777	-0.74674046	0	0	0.4	3.852338e-18
2.510036903864551e-09	0.046799127	-0.29512754	-0.71586317	0	0	0.4	5.1392822e-18
2.5200284658357263e-09	0.16996896	-0.22481136	-0.6863319	0	0	0.4	4.829689e-18
2.53001570893735e-09	0.23716064	-0.102987185	-0.6720534	0	0	0.4	4.498204e-18
2.5400463178624634e-09	0.24456318	0.0417422	-0.66113836	0	0	0.4	4.4950454e-18
2.55001562810666e-09	0.1815914	0.17478557	-0.6593066	0	0	0.4	3.846126e-18
2.560024833847225e-09	0.078724064	0.26986077	-0.6628859	0	0	0.4	4.499962e-18
2.5700525448574167e-09	-0.0661972	0.2910608	-0.6585976	0	0	0.4	4.533483e-18
2.5800196518446705e-09	-0.21778724	0.24096613	-0.6432764	0	0	0.4	4.947876e-18
2.5900165731329945e-09	-0.30421144	0.1145592	-0.63925856	0	0	0.4	4.17674e-18
2.6000433019774855e-09	-0.3232376	-0.03910682	-0.6389128	0	0	0.4	4.213553e-18
2.610024142298652e-09	-0.2664819	-0.19920042	-0.6439466	0	0	0.4	4.2015026e-18
2.6200182846692534e-09	-0.11717887	-0.30478686	-0.65718615	0	0	0.4	4.222584e-18
2.630018811356938e-09	0.071782395	-0.29313844	-0.6466717	0	0	0.4	4.3851826e-18
2.6400190623073877e-09	0.183002	-0.18331107	-0.64107865	0	0	0.4	4.381067e-18
2.6500549264454848e-09	0.2427122	-0.05274685	-0.64078945	0	0	0.4	4.0777746e-18
2.6600604247962358e-09	0.27997652	0.11053862	-0.6404653	0	0	0.4	3.8287804e-18
2.6700481707735597e-09	0.22387566	0.27141374	-0.6352452	0	0	0.4	3.4485482e-18
2.680047537958474e-09	0.07325651	0.37329003	-0.63639235	0	0	0.4	4.56182e-18
2.690056110156503e-09	-0.090662494	0.3300749	-0.63014376	0	0	0.4	4.4408767e-18
2.700043285370169e-09	-0.19131225	0.20628552	-0.610962	0	0	0.4	4.3480327e-18
2.7100022866089115e-09	-0.22966605	0.058174495	-0.59713763	0	0	0.4	4.1960763e-18
2.7200138328721865e-09	-0.21378177	-0.12343341	-0.58098376	0	0	0.4	3.649058e-18
2.730014096715184e-09	-0.112803526	-0.29864857	-0.5750891	0	0	0.4	4.508313e-18
2.7400281205927767e-09	0.047928058	-0.37761343	-0.5747437	0	0	0.4	3.830916e-18
2.7500223232777333e-09	0.21034154	-0.3038142	-0.56151193	0	0	0.4	3.7904977e-18
2.7600388654553606e-09	0.28166527	-0.15228204	-0.5426572	0	0	0.4	4.4294984e-18
2.770053673204814e-09	0.28867885	0.023396662	-0.5171316	0	0	0.4	3.1248365e-18
2.7800594574248177e-09	0.18873018	0.21721952	-0.5048447	0	0	0.4	4.959524e-18
2.7900144149294083e-09	0.0088934945	0.29364577	-0.49309146	0	0	0.4	4.418676e-18
2.800009459991671e-09	-0.16392861	0.24854177	-0.4947891	0	0	0.4	2.6022029e-18
2.8100589513374842e-09	-0.29783097	0.15659031	-0.4705773	0	0	0.4	4.009009e-18
2.820018947781182e-09	-0.3676221	-0.06097186	-0.46352786	0	0	0.4	2.5092882e-18
2.83002235295401e-09	-0.27154243	-0.29849377	-0.45511377	0	0	0.4	3.6009856e-18
2.8400329075690912e-09	-0.071158834	-0.38833642	-0.45500106	0	0	0.4	4.785967e-18
2.8500016524419265e-09	0.14008057	-0.34349626	-0.4642891	0	0	0.4	3.9878965e-18
2.8600457672752346e-09	0.25619757	-0.20498277	-0.4576586	0	0	0.4	3.677563e-18
2.8700386518039905e-09	0.26248446	-0.027089585	-0.44257984	0	0	0.4	5.068327e-18
2.8800160653944707e-09	0.19050981	0.166472	-0.43169764	0	0	0.4	3.6874454e-18
2.890021693831135e-09	0.047573194	0.3087579	-0.42371237	0	0	0.4	4.075806e-18
2.9000283515185347e-09	-0.15416962	0.36655656	-0.41770458	0	0	0.4	3.598981e-18
2.9100552312572664e-09	-0.33260348	0.25104484	-0.39704338	0	0	0.4	2.7537862e-18
2.920027593248038e-09	-0.3789251	0.015628727	-0.36855215	0	0	0.4	3.9431865e-18
2.9300127114704428e-09	-0.27091563	-0.24916565	-0.34307155	0	0	0.4	3.1908198e-18
2.940040546501252e-09	-0.048393305	-0.37197137	-0.34125182	0	0	0.4	3.3756304e-18
2.9500017561543454e-09	0.13806957	-0.3595135	-0.33426547	0	0	0.4	3.6948863e-18
2.96006092099199e-09	0.27826473	-0.2590251	-0.33179462	0	0	0.4	2.8162193e-18
2.9700430720007928e-09	0.34074357	-0.02643092	-0.31720087	0	0	0.4	3.861146e-18
2.9800639576019476e-09	0.27491587	0.2587753	-0.2950641	0	0	0.4	3.7039547e-18
2.9900216130705134e-09	0.015668932	0.4251017	-0.28286654	0	0	0.4	3.474924e-18
3.000047115778916e-09	-0.2239528	0.3650625	-0.27888364	0	0	0.4	4.4544714e-18
3.0100459764415553e-09	-0.34206703	0.22044219	-0.25647867	0	0	0.4	4.8133847e-18
3.020048890981802e-09	-0.35629994	-0.0057298234	-0.23563825	0	0	0.4	3.0872804e-18
3.0300248205864626e-09	-0.24016437	-0.25158024	-0.2316503	0	0	0.4	3.1497044e-18
3.0400622075787407e-09	0.04331076	-0.37546498	-0.23086284	0	0	0.4	2.977641e-18
3.0500067912217117e-09	0.2530887	-0.2997301	-0.22207363	0	0	0.4	3.6602965e-18
3.060046346145185e-09	0.36097935	-0.092061155	-0.21101762	0	0	0.4	3.6198445e-18
3.07000615361947e-09	0.33382306	0.15533982	-0.19837578	0	0	0.4	2.730441e-18
3.080022823539912e-09	0.17374608	0.34830493	-0.19019985	0	0	0.4	2.7912079e-18
3.090012715555564e-09	-0.045673694	0.40087718	-0.18303724	0	0	0.4	3.4791097e-18
3.1000109598498453e-09	-0.26986054	0.30972815	-0.18196519	0	0	0.4	3.2146985e-18
3.1100451245149278e-09	-0.36468387	0.052892644	-0.16506615	0	0	0.4	2.6064972e-18
3.1200542696441407e-09	-0.26054326	-0.2074207	-0.1422103	0	0	0.4	2.8895387e-18
3.130057330138702e-09	-0.0901693	-0.3389508	-0.13126962	0	0	0.4	2.3663642e-18
3.140044601558745e-09	0.12456739	-0.37366712	-0.12613222	0	0	0.4	2.9019202e-18
3.1500458679638104e-09	0.3275198	-0.24838075	-0.12772605	0	0	0.4	3.0845675e-18
3.1600655281568215e-09	0.41860518	0.020121979	-0.09809019	0	0	0.4	2.323748e-18
3.170030170248109e-09	0.27124178	0.31616753	-0.07904818	0	0	0.4	2.8018342e-18
3.1800483111781477e-09	-0.012095655	0.40794832	-0.073243126	0	0	0.4	2.344754e-18
3.1900159018902277e-09	-0.22015166	0.30913916	-0.07295442	0	0	0.4	2.7699584e-18
3.20005663137701e-09	-0.345498	0.10387648	-0.050961856	0	0	0.4	2.197255e-18
3.2100476529223743e-09	-0.32237685	-0.18135484	-0.043855395	0	0	0.4	3.2746199e-18
3.220044413855422e-09	-0.10052613	-0.39239457	-0.04251138	0	0	0.4	2.4959828e-18
3.2300451164018055e-09	0.18581918	-0.40788096	-0.035818014	0	0	0.4	3.6697297e-18
3.240051425524411e-09	0.37027866	-0.2128574	-0.021721393	0	0	0.4	2.6089246e-18
3.2500630710347674e-09	0.3662386	0.079569116	-0.011854482	0	0	0.4	2.5967826e-18
3.260035004095202e-09	0.18621221	0.27752915	0.0009130093	0	0	0.4	3.0335604e-18
3.2700080682820516e-09	-0.027303614	0.3439756	0.0059582377	0	0	0.4	1.8778904e-18
3.280003037526891e-09	-0.24157137	0.2782652	0.011003673	0	0	0.4	2.0995012e-18
3.2900072234320608e-09	-0.42187944	0.06681305	0.030344132	0	0	0.4	1.544222e-18
3.300029665956941e-09	-0.36217013	-0.26956585	0.03637173	0	0	0.4	1.6673216e-18
3.3100040930279606e-09	-0.05923939	-0.43858248	0.04807133	0	0	0.4	2.6087029e-18
3.32002907856901e-09	0.20053726	-0.3640831	0.06143275	0	0	0.4	2.6802335e-18
3.3300076826202176e-09	0.34386757	-0.20157197	0.078596145	0	0	0.4	2.100326e-18
3.34001702466739e-09	0.348832	0.05398283	0.10298728	0	0	0.4	3.4659134e-18
3.350038368790501e-09	0.22410038	0.27606833	0.11798488	0	0	0.4	2.6127523e-18
3.3600032852867116e-09	-0.029243467	0.380415	0.12648247	0	0	0.4	2.1201297e-18
3.3700440393518468e-09	-0.28292093	0.26830924	0.12915248	0	0	0.4	2.4538027e-18
3.3800265462418456e-09	-0.37733406	0.06548705	0.13621087	0	0	0.4	2.2543073e-18
3.39000099673545e-09	-0.31583473	-0.21055676	0.15177654	0	0	0.4	1.9484306e-18
3.400055367121102e-09	-0.09695917	-0.38112974	0.17144215	0	0	0.4	1.19541e-18
3.4100130695861286e-09	0.1863669	-0.3408004	0.16720483	0	0	0.4	2.621442e-18
3.4200117541387876e-09	0.36169004	-0.10640666	0.17646149	0	0	0.4	1.756042e-18
3.430029084444905e-09	0.33901262	0.19645524	0.19727096	0	0	0.4	1.2088108e-18
3.440012632639134e-09	0.10704133	0.37288347	0.21076334	0	0	0.4	1.0854871e-18
3.450021305287998e-09	-0.13873962	0.35345045	0.22402783	0	0	0.4	1.1512372e-18
3.4600260322693187e-09	-0.31773633	0.19755302	0.23553076	0	0	0.4	1.8881773e-18
3.470040046889691e-09	-0.33732942	-0.1046906	0.24748361	0	0	0.4	1.997713e-18
3.4800644786312417e-09	-0.120042115	-0.32306725	0.2705796	0	0	0.4	1.5413607e-18
3.490037472245455e-09	0.12512915	-0.32472575	0.27025408	0	0	0.4	1.4854178e-18
3.50003489923497e-09	0.28251204	-0.23096423	0.27905133	0	0	0.4	1.5228203e-18
3.510031746312351e-09	0.38925683	-0.026431566	0.291358	0	0	0.4	1.4610975e-18
3.5200284463904847e-09	0.2801842	0.2697914	0.30297863	0	0	0.4	1.6710085e-18
3.530035315625995e-09	-0.013647377	0.4090234	0.317389	0	0	0.4	1.2682792e-18
3.5400304001536136e-09	-0.30485567	0.2834054	0.32906008	0	0	0.4	1.1136015e-18
3.5500317891217467e-09	-0.35150826	0.04396331	0.34526983	0	0	0.4	1.6815611e-18
3.5600263650114234e-09	-0.27897978	-0.178045	0.3565245	0	0	0.4	2.6367612e-18
3.5700471778098304e-09	-0.062344912	-0.30740845	0.3665122	0	0	0.4	7.048488e-19
3.5800419552691283e-09	0.1682273	-0.2922052	0.37306002	0	0	0.4	1.4096324e-18
3.5900401059704236e-09	0.36967725	-0.120609544	0.38342842	0	0	0.4	2.0383955e-18
3.6000061864950662e-09	0.3611434	0.18109751	0.4055739	0	0	0.4	1.0125423e-18
3.6100066829399026e-09	0.07774364	0.3808571	0.42609173	0	0	0.4	1.6152662e-18
3.6200099580998847e-09	-0.2334291	0.28397474	0.44095463	0	0	0.4	5.751601e-19
3.630065993265835e-09	-0.32624987	0.060147382	0.4434623	0	0	0.4	8.708486e-19
3.6400070327901016e-09	-0.2508879	-0.1691604	0.4575187	0	0	0.4	1.2583862e-18
3.6500064699341515e-09	-0.07540378	-0.31245568	0.46951088	0	0	0.4	6.020113e-19
3.6600597383723476e-09	0.17269886	-0.30353475	0.4768602	0	0	0.4	2.0505685e-18
3.670043133836934e-09	0.34316096	-0.09760152	0.4931795	0	0	0.4	-5.207591e-19
3.6800642118673922e-09	0.3002725	0.18750139	0.5109055	0	0	0.4	1.2014868e-18
3.6900538620604055e-09	0.052214067	0.358961	0.53487843	0	0	0.4	1.6797832e-18
3.700044948352244e-09	-0.21009041	0.26266947	0.54028326	0	0	0.4	1.1117042e-18
3.7100151977214256e-09	-0.2736086	0.021354483	0.54492676	0	0	0.4	1.0391831e-18
3.7200293304534647e-09	-0.1943768	-0.17645149	0.5618426	0	0	0.4	1.1234782e-18
3.7300459446055134e-09	-0.04501267	-0.28619683	0.5744539	0	0	0.4	1.4556388e-18
3.74005540538529e-09	0.16614568	-0.2563668	0.5811075	0	0	0.4	8.816452e-19
3.750008059092674e-09	0.29830274	-0.032203663	0.5918797	0	0	0.4	3.7767374e-19
3.760057983024895e-09	0.19118455	0.22709672	0.6054524	0	0	0.4	7.2809455e-21
3.770028196379444e-09	-0.04376744	0.3111422	0.61126095	0	0	0.4	5.8392556e-19
3.780053516356245e-09	-0.26902378	0.17609787	0.6200922	0	0	0.4	-1.902866e-19