# t (s)	mx ()	my ()	mz ()	B_extx (T)	B_exty (T)	B_extz (T)	E_total (J)
0	0	0	-1	0	0	0.4	1.2498702e-18
1.0039192201074154e-11	-0.004505194	0.014477195	-0.9743903	0	0	0.4	3.2253786e-18
2.0013274819039395e-11	-0.013851968	0.009764766	-0.9692991	0	0	0.4	4.520098e-18
3.005321405828355e-11	-0.0062883757	0.006231486	-0.96566075	0	0	0.4	5.360011e-18
4.000847879222573e-11	-0.010267227	0.008577022	-0.9601628	0	0	0.4	4.969247e-18
5.0038435352104385e-11	-0.02667103	0.00023200682	-0.9593322	0	0	0.4	4.31115e-18
6.002132944621432e-11	-0.020502163	-0.0011261145	-0.9598781	0	0	0.4	3.811772e-18
7.00342736020942e-11	0.00011964502	0.007142229	-0.9569549	0	0	0.4	4.9924246e-18
8.004157995072946e-11	0.008649205	0.012481783	-0.9595021	0	0	0.4	4.357969e-18
9.006098032382927e-11	0.01963437	0.022380382	-0.9573932	0	0	0.4	4.4011824e-18
1.000393546505107e-10	0.009092586	0.017099995	-0.9571439	0	0	0.4	4.0629433e-18
1.1002548297380272e-10	0.021352978	0.001513197	-0.9584993	0	0	0.4	5.4789247e-18
1.2004729502327072e-10	0.0041862507	0.0028409977	-0.9553956	0	0	0.4	4.1266386e-18
1.3000262689001136e-10	0.01388036	0.011613139	-0.9564065	0	0	0.4	3.7556196e-18
1.4000586670331556e-10	0.03055215	0.010861544	-0.9584547	0	0	0.4	4.7488972e-18
1.5002626390152419e-10	0.014980793	-0.0048407074	-0.9557353	0	0	0.4	4.887006e-18
1.6001880127365097e-10	0.021302985	0.002774326	-0.95244706	0	0	0.4	4.2745646e-18
1.700482959788659e-10	0.031581856	-0.0034520067	-0.95053625	0	0	0.4	5.1216703e-18
1.8006427373369806e-10	0.028656121	-0.004461405	-0.9578749	0	0	0.4	4.895859e-18
1.9002466706901968e-10	0.022999665	-0.0013142736	-0.95956624	0	0	0.4	3.7763918e-18
2.0003337862059924e-10	0.02911743	-0.019894132	-0.9541997	0	0	0.4	4.2288666e-18
2.1000240133559558e-10	0.025408395	-0.025439594	-0.95542914	0	0	0.4	4.354224e-18
2.200052227529894e-10	0.028349444	-0.018514074	-0.9541482	0	0	0.4	4.6013998e-18
2.3001146657469895e-10	0.026912296	0.00225601	-0.9572139	0	0	0.4	5.153755e-18
2.4005432198090016e-10	0.03204778	0.0054292493	-0.95955473	0	0	0.4	4.725718e-18
2.50032012809445e-10	0.041348387	-0.0013863165	-0.9592364	0	0	0.4	4.859672e-18
2.600391770984778e-10	0.052173585	0.0020963312	-0.9545461	0	0	0.4	3.6602713e-18
2.7006451511909245e-10	0.041401923	-0.0006714227	-0.9575203	0	0	0.4	3.6958752e-18
2.800172084269246e-10	0.03912627	-0.014082175	-0.9574429	0	0	0.4	5.49257e-18
2.9005207891052394e-10	0.026593504	-0.020621166	-0.9558017	0	0	0.4	4.84568e-18
3.0001375551582963e-10	0.028897287	-0.0030871294	-0.9530707	0	0	0.4	5.0874304e-18
3.100177420088794e-10	0.034740184	-0.00591245	-0.95161504	0	0	0.4	3.7391194e-18
3.200331712112443e-10	0.015314164	-0.010734931	-0.95539653	0	0	0.4	4.3197394e-18
3.3000212151758777e-10	0.020218303	0.0055943993	-0.9550874	0	0	0.4	4.6582143e-18
3.4004103963644665e-10	0.040729035	-0.011643032	-0.95920354	0	0	0.4	4.7491276e-18
3.5004804635591955e-10	0.017143674	-0.01624847	-0.95621437	0	0	0.4	4.3300134e-18
3.600447600042611e-10	0.012727592	-0.00046299712	-0.95961064	0	0	0.4	3.7250544e-18
3.700576916631968e-10	0.02072732	-0.0018550069	-0.960024	0	0	0.4	4.672003e-18
3.8003417186165413e-10	0.01882699	0.0036111535	-0.9611773	0	0	0.4	4.581996e-18
3.900357125030953e-10	0.025024174	0.0104501005	-0.95794004	0	0	0.4	4.236574e-18
4.000529148622786e-10	0.019098964	0.013435808	-0.9567601	0	0	0.4	3.9006215e-18
4.1005202589169147e-10	0.027320266	-0.007165263	-0.9581678	0	0	0.4	4.8993283e-18
4.2003726100753145e-10	0.02297012	0.016002474	-0.9570205	0	0	0.4	4.028772e-18
4.300026901933377e-10	0.044328004	0.024939904	-0.9542675	0	0	0.4	4.8374424e-18
4.400633470660792e-10	0.030404361	0.024055943	-0.95460075	0	0	0.4	4.4879065e-18
4.5004625465650454e-10	0.035881393	0.05090052	-0.9549266	0	0	0.4	4.256893e-18
4.6002707471158286e-10	0.0368993	0.040173985	-0.95696944	0	0	0.4	4.9380437e-18
4.700537871802345e-10	0.045505818	0.0331598	-0.95445424	0	0	0.4	4.848716e-18
4.800535677295881e-10	0.056478087	0.024781296	-0.9558216	0	0	0.4	5.191862e-18
4.900036086666315e-10	0.05594093	0.011879728	-0.9564725	0	0	0.4	3.831587e-18
5.000267271958401e-10	0.032961715	0.02323974	-0.9554977	0	0	0.4	4.8666274e-18
5.100468839097927e-10	0.026603503	0.031670872	-0.9568706	0	0	0.4	4.4949553e-18
5.200181205072468e-10	0.024645718	0.04168951	-0.95843947	0	0	0.4	5.3224825e-18
5.300390150172244e-10	0.00961518	0.039017104	-0.9563582	0	0	0.4	4.775948e-18
5.400205667943122e-10	0.015392493	0.065578066	-0.9590069	0	0	0.4	5.0384353e-18
5.500424730284162e-10	0.01805307	0.060849175	-0.9563066	0	0	0.4	4.120539e-18
5.600115673569296e-10	0.023292271	0.050115015	-0.95715845	0	0	0.4	4.1155482e-18
5.700324846682264e-10	0.0118083535	0.05259536	-0.9557608	0	0	0.4	4.9660454e-18
5.800057248338662e-10	0.0057406286	0.03147239	-0.956843	0	0	0.4	5.138731e-18
5.900436822112744e-10	0.004598474	0.022464564	-0.9551847	0	0	0.4	4.7375136e-18
6.000259368952122e-10	-0.023011629	0.029572971	-0.95370454	0	0	0.4	5.139973e-18
6.100572174008542e-10	-0.0015947078	0.04078896	-0.9540642	0	0	0.4	4.2826006e-18
6.20005671831462e-10	-0.0074405516	0.05091295	-0.95269144	0	0	0.4	4.8504775e-18
6.300201637553871e-10	-0.0072015836	0.06549195	-0.9478964	0	0	0.4	4.5192128e-18
6.400157787551385e-10	0.0060435324	0.07652618	-0.949244	0	0	0.4	4.129682e-18
6.500245993307169e-10	0.015119427	0.08575658	-0.9457253	0	0	0.4	4.397465e-18
6.600077922170007e-10	0.013652402	0.061638273	-0.9449443	0	0	0.4	3.983949e-18
6.700210487312205e-10	-0.0051757973	0.048742183	-0.94475716	0	0	0.4	3.752907e-18
6.800002029350542e-10	-0.022291837	0.034842487	-0.942734	0	0	0.4	5.5366185e-18
6.900378860124955e-10	-0.033797987	0.037896242	-0.94445395	0	0	0.4	4.9695303e-18
7.000358232552797e-10	-0.04375909	0.04707142	-0.94502634	0	0	0.4	4.572443e-18
7.100036881352021e-10	-0.033932537	0.06267	-0.9473246	0	0	0.4	4.88825e-18
7.200349104283756e-10	-0.016430926	0.08064651	-0.9477458	0	0	0.4	4.2237583e-18
7.30050923297963e-10	-0.00015201945	0.085245915	-0.9515665	0	0	0.4	4.5414226e-18
7.4000368588212e-10	0.0054219626	0.07711004	-0.94746804	0	0	0.4	4.4008267e-18
7.50063788222216e-10	0.0016120514	0.073036395	-0.94680727	0	0	0.4	4.0302953e-18
7.600388961057721e-10	0.0009734783	0.076521434	-0.9476888	0	0	0.4	3.844208e-18
7.700417785061101e-10	0.007951281	0.08315821	-0.94593406	0	0	0.4	5.3215515e-18
7.800062237768303e-10	-0.0052786297	0.0800678	-0.9482801	0	0	0.4	3.8810318e-18
7.90006403389076e-10	-0.005669857	0.10673677	-0.94838667	0	0	0.4	5.287804e-18
8.000620152426953e-10	0.00025054856	0.12096668	-0.9450916	0	0	0.4	5.4969535e-18
8.100031827479207e-10	0.015062614	0.11404246	-0.947195	0	0	0.4	4.7463247e-18
8.200473924058066e-10	0.0072125588	0.113635555	-0.9412899	0	0	0.4	4.3849316e-18
8.300318465349543e-10	0.028542666	0.10724736	-0.9425037	0	0	0.4	4.7998727e-18
8.400035591244054e-10	0.052347396	0.09526386	-0.9388949	0	0	0.4	4.425749e-18
8.500357746333674e-10	0.05250857	0.07471085	-0.9415961	0	0	0.4	4.680986e-18
8.600409799785758e-10	0.05177404	0.07604808	-0.945293	0	0	0.4	4.2103084e-18
8.700108114255626e-10	0.050433435	0.09509714	-0.9458373	0	0	0.4	4.2604864e-18
8.800274035259242e-10	0.057121042	0.097384565	-0.9420596	0	0	0.4	4.333452e-18
8.900374070077337e-10	0.045905165	0.09173268	-0.9375732	0	0	0.4	5.041832e-18
9.000391786941852e-10	0.061220367	0.10463174	-0.9384806	0	0	0.4	5.472955e-18
9.100238684988156e-10	0.076697625	0.09551198	-0.94397753	0	0	0.4	4.5613374e-18
9.200523361465313e-10	0.09010261	0.085212626	-0.9414552	0	0	0.4	4.3647107e-18
9.300162703856976e-10	0.0918579	0.07201397	-0.94672245	0	0	0.4	5.1996987e-18
9.400304677396044e-10	0.0851264	0.059685368	-0.94474757	0	0	0.4	6.0638013e-18
9.500065018811483e-10	0.07933387	0.05803819	-0.94453347	0	0	0.4	5.1314745e-18
9.600402666264254e-10	0.07441095	0.057464935	-0.9476757	0	0	0.4	4.6913255e-18
9.700639533527763e-10	0.066876754	0.061574277	-0.95287806	0	0	0.4	4.963261e-18
9.80026292926609e-10	0.08225752	0.06381225	-0.951017	0	0	0.4	4.7266668e-18
9.900506404002482e-10	0.081836335	0.07834789	-0.955163	0	0	0.4	3.98226e-18
1.0000285343766153e-09	0.08030887	0.073524445	-0.95497036	0	0	0.4	5.415944e-18
1.0100076118404279e-09	0.09091106	0.08356036	-0.9519506	0	0	0.4	4.90357e-18
1.0200615747796815e-09	0.086893685	0.08852041	-0.95032996	0	0	0.4	4.295656e-18
1.0300549172961771e-09	0.098815225	0.09045572	-0.9456772	0	0	0.4	4.2304167e-18
1.0400598893411773e-09	0.085545085	0.08788076	-0.94363326	0	0	0.4	4.4404995e-18
1.0500050859556944e-09	0.09595125	0.08609861	-0.9437409	0	0	0.4	5.074495e-18
1.0600290517996334e-09	0.093478315	0.07302312	-0.94649124	0	0	0.4	4.038281e-18
1.0700248687588002e-09	0.07855234	0.0704153	-0.9458638	0	0	0.4	5.656021e-18
1.080060522968428e-09	0.0701074	0.08006319	-0.94893223	0	0	0.4	5.2381733e-18
1.090007756932084e-09	0.07365129	0.07912372	-0.9521524	0	0	0.4	4.2872283e-18
1.1000582012684315e-09	0.069845565	0.069090836	-0.95475733	0	0	0.4	4.7123793e-18
1.110018125784434e-09	0.07302243	0.066671394	-0.9529687	0	0	0.4	4.921634e-18
1.1200012724999424e-09	0.08791532	0.07182363	-0.95059514	0	0	0.4	4.919658e-18
1.1300478027777847e-09	0.07382675	0.07043165	-0.9491113	0	0	0.4	5.7686377e-18
1.1400543703868993e-09	0.06748226	0.07539356	-0.95375407	0	0	0.4	4.8318043e-18
1.1500199466907936e-09	0.06898067	0.070229806	-0.9529894	0	0	0.4	5.2230504e-18
1.1600252362343064e-09	0.056759443	0.048462115	-0.9540356	0	0	0.4	4.631709e-18
1.1700365811064681e-09	0.036812026	0.03100468	-0.95069605	0	0	0.4	4.7395356e-18
1.1800581094592547e-09	0.030381724	0.02006274	-0.951794	0	0	0.4	5.9267743e-18
1.1900037721099625e-09	0.019757574	0.014031154	-0.94938606	0	0	0.4	5.78998e-18
1.2000085858129153e-09	0.023725849	0.02433165	-0.95316845	0	0	0.4	5.148012e-18
1.2100087378510412e-09	0.031214982	0.02181395	-0.95282036	0	0	0.4	4.820738e-18
1.2200508238919266e-09	0.026932508	0.031887047	-0.94848573	0	0	0.4	5.2367845e-18
1.2300124472060582e-09	0.025079431	0.01938259	-0.9450571	0	0	0.4	5.356882e-18
1.2400391924776298e-09	-0.0085403	0.015252962	-0.94688064	0	0	0.4	5.5139975e-18
1.2500526959654444e-09	0.0019183917	0.017910963	-0.9469754	0	0	0.4	4.589031e-18
1.2600530723196225e-09	-0.0062518236	0.044161353	-0.9479149	0	0	0.4	3.54409e-18
1.2700574764480172e-09	-0.007643723	0.053686682	-0.9443483	0	0	0.4	4.4215575e-18
1.2800392500268917e-09	0.007422218	0.047370046	-0.944787	0	0	0.4	5.3055786e-18
1.2900537097398822e-09	0.001485491	0.04881614	-0.94255376	0	0	0.4	4.9332795e-18
1.3000350998984089e-09	0.009459946	0.03367141	-0.94097495	0	0	0.4	4.877603e-18
1.310048515873222e-09	0.0016787064	0.0248797	-0.9423289	0	0	0.4	4.2389636e-18
1.3200184598411159e-09	-0.013554334	0.035490423	-0.9435634	0	0	0.4	5.0717793e-18
1.3300170337232164e-09	0.0016947121	0.04032408	-0.94246924	0	0	0.4	4.5411955e-18
1.3400240472696566e-09	0.0033682273	0.05116365	-0.94493455	0	0	0.4	4.812072e-18
1.3500371717370744e-09	0.0062055504	0.063950814	-0.94603765	0	0	0.4	4.427071e-18
1.360046756113513e-09	0.030490922	0.055310868	-0.9419003	0	0	0.4	4.2273913e-18
1.3700394747370486e-09	0.03733657	0.053143263	-0.9418936	0	0	0.4	5.06018e-18
1.3800633879081571e-09	0.05792576	0.06313186	-0.9379854	0	0	0.4	5.401199e-18
1.3900414712340466e-09	0.056572206	0.06443206	-0.93725	0	0	0.4	4.8155585e-18
1.4000263656757966e-09	0.05340513	0.0617825	-0.93735206	0	0	0.4	5.137435e-18
1.410026090556854e-09	0.053442687	0.055908676	-0.94022	0	0	0.4	4.8351325e-18
1.420030182197328e-09	0.042082798	0.07256084	-0.9381536	0	0	0.4	4.911314e-18
1.4300326789488385e-09	0.039024163	0.088829145	-0.9435318	0	0	0.4	4.3331666e-18
1.4400465329634222e-09	0.05210693	0.09495846	-0.93834394	0	0	0.4	4.5460854e-18
1.4500438946687425e-09	0.045536943	0.09616089	-0.9381469	0	0	0.4	5.3545626e-18
1.4600256515387435e-09	0.037655305	0.09133641	-0.9431519	0	0	0.4	5.177435e-18
1.4700048890094183e-09	0.045278728	0.09491378	-0.9381559	0	0	0.4	4.3479438e-18
1.4800547661039533e-09	0.03860924	0.072966315	-0.9418898	0	0	0.4	4.254443e-18
1.490014674894744e-09	0.045081258	0.053701367	-0.94306487	0	0	0.4	3.9224363e-18
1.5000061724603912e-09	0.044497274	0.041115906	-0.94034815	0	0	0.4	4.589639e-18
1.5100458982298501e-09	0.041676607	0.056744628	-0.9434311	0	0	0.4	3.8988695e-18
1.52006501629958e-09	0.036969643	0.04801124	-0.9401355	0	0	0.4	4.7568196e-18
1.53004824789205e-09	0.045634545	0.058997713	-0.9431587	0	0	0.4	4.230025e-18
1.5400041783399429e-09	0.041309427	0.08518938	-0.9441142	0	0	0.4	5.2386986e-18
1.550024564955105e-09	0.05301481	0.09192462	-0.9434186	0	0	0.4	3.1426895e-18
1.56003691664117e-09	0.066577375	0.096988074	-0.94343686	0	0	0.4	4.5434086e-18
1.5700182251629949e-09	0.064944506	0.09409137	-0.9411282	0	0	0.4	4.1639126e-18
1.5800371298351413e-09	0.07062553	0.07745006	-0.94432765	0	0	0.4	4.4968524e-18
1.5900319129655794e-09	0.06347617	0.048986915	-0.93986374	0	0	0.4	5.0987645e-18
1.600038915626021e-09	0.06144979	0.04759234	-0.9398885	0	0	0.4	4.756921e-18
1.6100239631005404e-09	0.050967276	0.04030909	-0.94009495	0	0	0.4	5.1249915e-18
1.620001701138653e-09	0.054722983	0.0548616	-0.94049025	0	0	0.4	5.4717555e-18
1.6300342391974275e-09	0.076210216	0.066031866	-0.94301826	0	0	0.4	3.9456453e-18
1.6400436755285936e-09	0.08233136	0.056100424	-0.948075	0	0	0.4	5.0510473e-18
1.650020957522399e-09	0.10211269	0.063271366	-0.9434039	0	0	0.4	5.187507e-18
1.6600172149947382e-09	0.1022929	0.051634017	-0.9429439	0	0	0.4	4.2711227e-18
1.670028122805293e-09	0.10277343	0.040957212	-0.94418937	0	0	0.4	4.1860157e-18
1.680026547886656e-09	0.119727686	0.03724124	-0.9392892	0	0	0.4	5.0586714e-18
1.6900619834661014e-09	0.100569636	0.018557053	-0.940456	0	0	0.4	3.989099e-18
1.700022647675999e-09	0.09834262	0.047860686	-0.9408408	0	0	0.4	3.771737e-18
1.7100120851456783e-09	0.10275133	0.048928525	-0.93709445	0	0	0.4	4.5154342e-18
1.7200493825774292e-09	0.10611434	0.05867697	-0.9373838	0	0	0.4	4.129719e-18
1.730012089828567e-09	0.118549176	0.074280664	-0.9395195	0	0	0.4	4.646737e-18
1.7400268669234872e-09	0.12047844	0.07172169	-0.9409334	0	0	0.4	4.299503e-18
1.7500298118844862e-09	0.1338328	0.05282008	-0.9433594	0	0	0.4	4.2781215e-18
1.7600329872275282e-09	0.12646893	0.019122478	-0.94150764	0	0	0.4	4.3051455e-18
1.7700312666915263e-09	0.12309611	0.008990133	-0.9398162	0	0	0.4	5.2406177e-18
1.7800091333861513e-09	0.11433544	0.010808899	-0.9352057	0	0	0.4	4.626908e-18
1.7900250855629727e-09	0.1071195	0.01690214	-0.939158	0	0	0.4	5.251245e-18
1.8000515628018687e-09	0.11272182	0.02362549	-0.9378372	0	0	0.4	4.214475e-18
1.8100558483747522e-09	0.112312816	0.030497242	-0.9341118	0	0	0.4	4.6188223e-18
1.8200522017316243e-09	0.10768276	0.028629195	-0.93732804	0	0	0.4	4.7537826e-18
1.8300119091310042e-09	0.13082246	0.018353824	-0.939797	0	0	0.4	5.2193504e-18
1.8400442557597693e-09	0.118361235	0.0063785566	-0.9406686	0	0	0.4	5.044135e-18
1.8500205714576526e-09	0.121053115	-0.0019876147	-0.94428086	0	0	0.4	4.1115897e-18
1.8600375473424124e-09	0.13444856	-0.026813112	-0.93881226	0	0	0.4	4.878028e-18
1.8700470058263166e-09	0.110620886	-0.041074034	-0.94232583	0	0	0.4	4.823984e-18
1.8800270304279832e-09	0.10779988	-0.03376173	-0.9391027	0	0	0.4	4.261954e-18
1.890049666336783e-09	0.099139564	-0.029686265	-0.9419463	0	0	0.4	5.497985e-18
1.900028560876666e-09	0.09621955	-0.023574704	-0.94223446	0	0	0.4	5.787302e-18
1.9100294729447925e-09	0.094155975	-0.025087653	-0.9408068	0	0	0.4	4.3935624e-18
1.9200653794200555e-09	0.10542927	-0.02073225	-0.94248956	0	0	0.4	4.6294515e-18
1.9300420636498924e-09	0.103226215	-0.024441728	-0.94292897	0	0	0.4	4.720577e-18
1.9400427063519806e-09	0.106998466	-0.018462999	-0.9435013	0	0	0.4	4.897075e-18
1.9500427905229757e-09	0.101758815	-0.030997328	-0.94036156	0	0	0.4	4.61173e-18
1.9600154420898122e-09	0.090413645	-0.028254699	-0.94057626	0	0	0.4	4.742785e-18
1.9700451624371634e-09	0.08160812	-0.026970163	-0.937503	0	0	0.4	4.7274323e-18
1.9800041433092184e-09	0.07921457	-0.032586727	-0.9311546	0	0	0.4	4.6964275e-18
1.990019424622146e-09	0.06541179	-0.03224035	-0.9284758	0	0	0.4	5.089617e-18
2.0000650347269766e-09	0.07205684	-0.031875644	-0.93418735	0	0	0.4	5.8206487e-18
2.0100263980290925e-09	0.09072882	-0.027510704	-0.938924	0	0	0.4	3.836403e-18
2.0200221361167306e-09	0.098286785	-0.04120613	-0.93021184	0	0	0.4	3.9293635e-18
2.030033532378207e-09	0.12295777	-0.05505834	-0.9330452	0	0	0.4	4.7901798e-18
2.0400417554059608e-09	0.13530803	-0.049756993	-0.9307839	0	0	0.4	3.940083e-18
2.050045581980963e-09	0.12183847	-0.041053507	-0.9323427	0	0	0.4	4.723857e-18
2.0600158828944732e-09	0.10992569	-0.033173125	-0.9354884	0	0	0.4	4.731164e-18
2.0700228333391096e-09	0.09398264	-0.020226361	-0.94128686	0	0	0.4	5.6544e-18
2.0800052140697093e-09	0.08520133	-0.022150632	-0.94516516	0	0	0.4	3.9018043e-18
2.090054785939341e-09	0.090919636	-0.03566811	-0.94146186	0	0	0.4	4.2888368e-18
2.1000472833035417e-09	0.111119576	-0.0135250185	-0.9371183	0	0	0.4	6.1551014e-18
2.110062591126071e-09	0.11921779	-0.0123627875	-0.93450946	0	0	0.4	4.491802e-18
2.1200179385144876e-09	0.1284156	-0.012418648	-0.9343124	0	0	0.4	5.3805733e-18
2.1300051907319287e-09	0.13869677	-0.0048017595	-0.93388283	0	0	0.4	4.355755e-18
2.140032808457992e-09	0.1303985	-0.042541575	-0.93487746	0	0	0.4	5.1414615e-18
2.150039419000664e-09	0.121750176	-0.04797491	-0.9254459	0	0	0.4	5.0180527e-18
2.1600254782050575e-09	0.12193387	-0.04415897	-0.9194761	0	0	0.4	4.2890977e-18
2.1700315530554247e-09	0.09988858	-0.03574406	-0.9190423	0	0	0.4	4.6116076e-18
2.180011062924521e-09	0.091480896	-0.0035204992	-0.9219611	0	0	0.4	4.2443696e-18
2.1900075261540807e-09	0.10013203	0.024018448	-0.9244206	0	0	0.4	4.8881254e-18
2.2000242235570324e-09	0.11624882	0.03763434	-0.92663336	0	0	0.4	4.972059e-18
2.210059700603927e-09	0.11831925	0.0477707	-0.9238665	0	0	0.4	3.9718967e-18
2.2200090628023316e-09	0.106200084	0.066104956	-0.9301026	0	0	0.4	4.696691e-18
2.230009497610212e-09	0.09782333	0.06387645	-0.93207616	0	0	0.4	4.475738e-18
2.240016107574606e-09	0.09683497	0.0646098	-0.93362033	0	0	0.4	4.1450537e-18
2.2500554453157107e-09	0.07539637	0.06255676	-0.9364001	0	0	0.4	5.0081547e-18
2.26006568889393e-09	0.055833496	0.035427216	-0.93451047	0	0	0.4	4.0039272e-18
2.270004580359028e-09	0.054384824	0.05446016	-0.9312681	0	0	0.4	4.6678625e-18
2.2800139865619744e-09	0.056752082	0.06830167	-0.92871845	0	0	0.4	4.0812103e-18
2.290025330353427e-09	0.062909216	0.07414756	-0.92703253	0	0	0.4	4.886447e-18
2.300010729546453e-09	0.06506736	0.08464872	-0.92862475	0	0	0.4	5.309207e-18
2.3100258984190805e-09	0.09303124	0.085703306	-0.9212917	0	0	0.4	5.061863e-18
2.3200069491643623e-09	0.10108027	0.07177713	-0.9149647	0	0	0.4	4.8498902e-18
2.3300060946336686e-09	0.09158378	0.053208303	-0.92152685	0	0	0.4	4.4534705e-18
2.340017980914898e-09	0.102126405	0.053157575	-0.9279224	0	0	0.4	4.422813e-18
2.3500330463578263e-09	0.10839552	0.040062055	-0.92981815	0	0	0.4	4.6294e-18
2.3600449845270308e-09	0.09776965	0.041754935	-0.9335014	0	0	0.4	4.7162737e-18
2.370041922281291e-09	0.09724077	0.03844053	-0.9378574	0	0	0.4	5.3650637e-18
2.3800150514773846e-09	0.10285411	0.038737334	-0.9372195	0	0	0.4	4.8177038e-18
2.3900492020752462e-09	0.08716681	0.046520993	-0.9381271	0	0	0.4	4.7000125e-18
2.4000675682248494e-09	0.094781555	0.053325307	-0.9360844	0	0	0.4	4.910573e-18
2.410013169448823e-09	0.10894129	0.03926567	-0.9366391	0	0	0.4	4.856085e-18
2.420040651211912e-09	0.10455233	0.022553284	-0.93520886	0	0	0.4	5.1601925e-18
2.4300443397641728e-09	0.10310661	0.009946849	-0.9279913	0	0	0.4	4.278662e-18
2.440008895754147e-09	0.11498848	0.0015303137	-0.9242061	0	0	0.4	4.205211e-18
2.450036082056005e-09	0.08537555	-0.008336302	-0.92362505	0	0	0.4	5.149629e-18
2.460014352302404e-09	0.071032345	-0.003928321	-0.91848123	0	0	0.4	4.752012e-18
2.4700001009629387e-09	0.069662355	-0.002113725	-0.92585355	0	0	0.4	5.005824e-18
2.480053678374072e-09	0.083382405	-0.014492843	-0.9223152	0	0	0.4	4.3235097e-18
2.490049921685231e-09	0.07078837	-0.008623248	-0.9250191	0	0	0.4	4.713199e-18
2.5000110774479863e-09	0.0698838	0.012745763	-0.92978	0	0	0.4	4.3504067e-18
2.5100532041512777e-09	0.060455237	0.009832682	-0.9285842	0	0	0.4	4.6382296e-18
2.5200106606640866e-09	0.06948636	0.014843117	-0.933725	0	0	0.4	4.1427815e-18
2.530041261487799e-09	0.071034566	0.011652622	-0.93341213	0	0	0.4	3.740831e-18
2.540058608526782e-09	0.07167962	0.028750058	-0.93088114	0	0	0.4	4.158653e-18
2.5500312457553844e-09	0.073321156	0.037965633	-0.9342459	0	0	0.4	4.534061e-18
2.560039763256053e-09	0.06191992	0.059786405	-0.9299166	0	0	0.4	4.1856203e-18
2.5700164057874083e-09	0.05736954	0.061097544	-0.92713314	0	0	0.4	4.969457e-18
2.5800284113365245e-09	0.035609767	0.066649675	-0.9299754	0	0	0.4	4.608559e-18
2.5900110757740117e-09	0.03385496	0.06426459	-0.9328567	0	0	0.4	5.161057e-18
2.6000277028110065e-09	0.0339707	0.07228948	-0.93391436	0	0	0.4	4.8211875e-18
2.610007476658168e-09	0.007271367	0.077727646	-0.9294738	0	0	0.4	4.629716e-18
2.6200228376270075e-09	0.006908271	0.0773287	-0.9283078	0	0	0.4	3.5190497e-18
2.6300161631861056e-09	-0.0024061673	0.10018427	-0.9252391	0	0	0.4	4.3138002e-18
2.6400122974474656e-09	0.013482333	0.101115	-0.92809623	0	0	0.4	4.971584e-18
2.6500358757754533e-09	0.0044853324	0.097850144	-0.93143934	0	0	0.4	5.1689524e-18
2.660042758622521e-09	0.013199877	0.10516754	-0.9331274	0	0	0.4	3.814348e-18
2.6700601539450653e-09	-6.682297e-05	0.10894487	-0.93872595	0	0	0.4	4.1434664e-18
2.6800334017045915e-09	0.010875364	0.10985098	-0.9419996	0	0	0.4	4.4638785e-18
2.6900525503906586e-09	0.013436952	0.110695	-0.9402625	0	0	0.4	4.4662e-18
2.700032369782281e-09	0.0095289	0.11974878	-0.9435898	0	0	0.4	4.21839e-18
2.7100439109461823e-09	0.013260237	0.1413449	-0.9394857	0	0	0.4	4.499879e-18
2.7200593405380286e-09	0.008520503	0.1255535	-0.9378859	0	0	0.4	4.478957e-18
2.7300175137470876e-09	0.0075045195	0.13694257	-0.9333953	0	0	0.4	4.808882e-18
2.740055333905318e-09	0.02322352	0.119954206	-0.9298425	0	0	0.4	5.2084507e-18
2.750051880864019e-09	0.009793249	0.13433443	-0.92459804	0	0	0.4	4.547965e-18
2.7600091046789248e-09	0.006365969	0.13351808	-0.92241824	0	0	0.4	4.4078197e-18
2.7700077857885513e-09	-0.0012403545	0.122655444	-0.9220031	0	0	0.4	4.7395187e-18
2.7800370037130158e-09	-0.0187307	0.11948839	-0.92362535	0	0	0.4	5.2462644e-18
2.790018876925274e-09	-0.040517256	0.15526098	-0.9195787	0	0	0.4	4.9757987e-18
2.8000449861033737e-09	-0.035694215	0.15476325	-0.92229354	0	0	0.4	4.1134207e-18
2.8100289149056202e-09	-0.032306295	0.17870243	-0.9196902	0	0	0.4	4.5171696e-18
2.820066135674358e-09	-0.02787948	0.17008005	-0.9236166	0	0	0.4	6.001424e-18
2.8300620473494717e-09	-0.03657324	0.17271033	-0.9232305	0	0	0.4	5.4811262e-18
2.8400529357739584e-09	-0.040444035	0.15666114	-0.92848897	0	0	0.4	4.455737e-18
2.850053016656113e-09	-0.030007372	0.14682181	-0.929025	0	0	0.4	4.8907687e-18
2.860027669682702e-09	-0.039144393	0.1355328	-0.92818147	0	0	0.4	4.0465597e-18
2.8700003500533866e-09	-0.0724148	0.12717764	-0.9264676	0	0	0.4	5.8146053e-18
2.880064422028933e-09	-0.08575221	0.12697262	-0.92619264	0	0	0.4	4.754685e-18
2.890029870159757e-09	-0.061286815	0.1308522	-0.9256094	0	0	0.4	4.9949975e-18
2.900049692426822e-09	-0.06417594	0.15650955	-0.92668384	0	0	0.4	4.6716725e-18
2.910052890022593e-09	-0.05892794	0.14367561	-0.9295821	0	0	0.4	4.044559e-18
2.9200644927996282e-09	-0.056239143	0.13504077	-0.9270466	0	0	0.4	4.17309e-18
2.9300265559492966e-09	-0.058802184	0.11637785	-0.9296794	0	0	0.4	5.535278e-18
2.940037865495802e-09	-0.049056254	0.103054345	-0.93105334	0	0	0.4	4.6307816e-18
2.9500617874528507e-09	-0.060922142	0.09659105	-0.93009984	0	0	0.4	4.676917e-18
2.9600405016600342e-09	-0.06720194	0.099088304	-0.92826355	0	0	0.4	3.9311068e-18
2.9700593468247222e-09	-0.07420882	0.09442465	-0.92911834	0	0	0.4	4.688223e-18
2.9800299253107077e-09	-0.09488872	0.09227957	-0.92493004	0	0	0.4	4.5344755e-18
2.9900445107648097e-09	-0.10793086	0.09468269	-0.9323672	0	0	0.4	4.977129e-18
3.000020775112322e-09	-0.10623908	0.09489699	-0.9324488	0	0	0.4	4.9910635e-18
3.0100108553846276e-09	-0.09883571	0.09987332	-0.92954546	0	0	0.4	5.1060606e-18
3.0200046120899756e-09	-0.071219556	0.101715766	-0.9290556	0	0	0.4	4.2634584e-18
3.0300435951068283e-09	-0.046926178	0.095868155	-0.9268459	0	0	0.4	4.8910276e-18
3.040062512699948e-09	-0.018229466	0.086334385	-0.9180609	0	0	0.4	4.8695287e-18
3.0500407539506425e-09	-0.029066367	0.08319596	-0.9148364	0	0	0.4	4.514118e-18
3.060030547069191e-09	-0.03780153	0.07984949	-0.9102113	0	0	0.4	5.587461e-18
3.0700122281378295e-09	-0.05060604	0.07528537	-0.9123209	0	0	0.4	4.6823696e-18
3.080044160486438e-09	-0.06631255	0.083257996	-0.9117367	0	0	0.4	4.7732226e-18
3.0900547516341697e-09	-0.08043098	0.07585557	-0.90933055	0	0	0.4	4.784532e-18
3.1000235589860676e-09	-0.0940032	0.07841575	-0.9106697	0	0	0.4	4.2378605e-18
3.1100186640984274e-09	-0.10856568	0.06844095	-0.91014814	0	0	0.4	5.0697077e-18
3.1200075504466e-09	-0.094046205	0.06495446	-0.9172763	0	0	0.4	4.6639214e-18
3.1300121223932936e-09	-0.068880826	0.0574972	-0.91748965	0	0	0.4	4.838065e-18
3.1400106151089795e-09	-0.06846173	0.026210094	-0.92356056	0	0	0.4	4.8720367e-18
3.1500462325084528e-09	-0.06582639	0.0068117385	-0.9270011	0	0	0.4	4.9812965e-18
3.160010775276494e-09	-0.06175597	-0.0025468038	-0.93524724	0	0	0.4	3.902693e-18
3.17004063106345e-09	-0.06753512	-0.008149153	-0.9397915	0	0	0.4	4.908671e-18
3.180060080669628e-09	-0.083569035	0.008688883	-0.94214755	0	0	0.4	3.8107094e-18
3.190048624370313e-09	-0.07647702	0.031414524	-0.93979424	0	0	0.4	4.5196024e-18
3.2000088935832184e-09	-0.081463896	0.059805587	-0.9377556	0	0	0.4	4.5522305e-18
3.210034339871929e-09	-0.0734944	0.04995999	-0.93853956	0	0	0.4	4.8019592e-18
3.220047384183392e-09	-0.055604354	0.035082135	-0.9321728	0	0	0.4	4.680097e-18
3.2300514130656313e-09	-0.06180229	0.015744297	-0.9305734	0	0	0.4	4.615267e-18
3.240024931719572e-09	-0.065091774	0.007020032	-0.9316984	0	0	0.4	5.267635e-18
3.2500560844970912e-09	-0.06461446	0.004699062	-0.9332177	0	0	0.4	4.712818e-18
3.260058779576018e-09	-0.087937705	0.018781804	-0.93285996	0	0	0.4	4.790042e-18
3.270038580131092e-09	-0.08650957	0.028736567	-0.93447953	0	0	0.4	4.5986192e-18
3.2800279644690036e-09	-0.089677915	0.029447211	-0.9380574	0	0	0.4	4.8835523e-18
3.2900171606924618e-09	-0.08414847	0.032192286	-0.9439602	0	0	0.4	3.7051756e-18
3.3000604970976036e-09	-0.058536652	0.020891039	-0.94590765	0	0	0.4	5.0229046e-18
3.3100368948046826e-09	-0.052432217	0.02544936	-0.9447217	0	0	0.4	5.3016044e-18
3.3200292844658607e-09	-0.043239303	0.038610496	-0.94756067	0	0	0.4	4.3849866e-18
3.3300173414127254e-09	-0.037675828	0.023482662	-0.9476852	0	0	0.4	4.93177e-18
3.340026149349224e-09	-0.03442792	0.018532015	-0.94207877	0	0	0.4	4.094086e-18
3.350052999755121e-09	-0.029386502	0.019004257	-0.9369498	0	0	0.4	5.0801876e-18
3.3600547126867255e-09	-0.029483734	0.010472882	-0.93492913	0	0	0.4	3.636393e-18
3.370018731875008e-09	-0.028143099	0.0047716037	-0.93072915	0	0	0.4	4.100275e-18
3.380009782630374e-09	-0.030265657	0.023559006	-0.92612565	0	0	0.4	4.8478264e-18
3.390045765509479e-09	-0.018661141	0.021441858	-0.9245667	0	0	0.4	4.8465286e-18
3.400018640028693e-09	-0.021313688	0.00955796	-0.92265385	0	0	0.4	5.3630375e-18
3.4100357125451293e-09	-0.03981844	0.029500604	-0.92287457	0	0	0.4	4.5372987e-18
3.420022111507524e-09	-0.036074486	0.02982188	-0.92036754	0	0	0.4	5.3113875e-18
3.4300615604490614e-09	-0.056117218	0.01846336	-0.9240234	0	0	0.4	4.12053e-18
3.4400614848120022e-09	-0.06710702	0.027925827	-0.9274316	0	0	0.4	4.272613e-18
3.4500201894232486e-09	-0.092166826	0.033620827	-0.9265201	0	0	0.4	4.9063713e-18
3.4600356391815676e-09	-0.09192208	0.045196153	-0.93049085	0	0	0.4	5.2911485e-18
3.4700592878545e-09	-0.10379175	0.03876954	-0.9323288	0	0	0.4	4.508442e-18
3.4800110007562492e-09	-0.07868399	0.037128776	-0.93876654	0	0	0.4	4.461425e-18
3.4900435110412026e-09	-0.076899275	0.038364124	-0.93710303	0	0	0.4	4.865875e-18
3.5000639425855108e-09	-0.07541967	0.0338449	-0.9355084	0	0	0.4	5.3538794e-18
3.510040011888553e-09	-0.09771193	0.031213636	-0.9370635	0	0	0.4	4.3866505e-18
3.5200003459298383e-09	-0.10850008	0.019846106	-0.9390481	0	0	0.4	4.331054e-18
3.530058619032731e-09	-0.12966503	0.029987503	-0.93539625	0	0	0.4	5.2457474e-18
3.5400508196147083e-09	-0.114268154	0.034829274	-0.93795943	0	0	0.4	3.4695222e-18
3.5500097091715774e-09	-0.109560266	0.025176546	-0.93562895	0	0	0.4	4.4784137e-18
3.5600009872186645e-09	-0.11693575	0.035326023	-0.9320229	0	0	0.4	5.0797976e-18
3.5700318055495296e-09	-0.11297515	0.022584036	-0.9372046	0	0	0.4	4.586437e-18
3.5800137361952323e-09	-0.13582104	0.013388336	-0.93795943	0	0	0.4	4.5057405e-18
3.5900171578245275e-09	-0.1506272	0.00086525275	-0.9382745	0	0	0.4	5.6279533e-18
3.600016250552067e-09	-0.14258336	0.010403222	-0.93506545	0	0	0.4	4.2193768e-18
3.6100221361759427e-09	-0.14253682	-0.011942819	-0.9371335	0	0	0.4	3.960688e-18
3.62002038587473e-09	-0.14416704	0.010109789	-0.9361356	0	0	0.4	4.7572766e-18
3.6300594290874245e-09	-0.13902408	0.021597663	-0.9309529	0	0	0.4	4.576125e-18
3.6400576947165063e-09	-0.13826504	0.015355087	-0.9318487	0	0	0.4	3.8104993e-18
3.650057122762652e-09	-0.15646292	0.009154827	-0.9314472	0	0	0.4	5.314573e-18
3.6600393275981076e-09	-0.15179524	-0.0037277748	-0.92918515	0	0	0.4	4.70176e-18
3.6700555235464293e-09	-0.1632059	-0.0022594165	-0.9229633	0	0	0.4	4.302193e-18
3.680001713974067e-09	-0.18327531	-0.00028579944	-0.9110171	0	0	0.4	5.399215e-18
3.690005225985469e-09	-0.18404415	0.0025047322	-0.90676993	0	0	0.4	4.170871e-18
3.7000167951209587e-09	-0.18465056	-0.0031674537	-0.90630966	0	0	0.4	5.1198456e-18
3.7100507232411773e-09	-0.18158017	-0.008905376	-0.9101041	0	0	0.4	4.6796933e-18
3.7200061287716535e-09	-0.18493551	-0.035885856	-0.9086466	0	0	0.4	4.649332e-18
3.730056664913556e-09	-0.20347929	-0.027900156	-0.91049045	0	0	0.4	4.5986846e-18
3.740056754411001e-09	-0.18485783	-0.04056022	-0.91357374	0	0	0.4	5.1066876e-18
3.750000592927386e-09	-0.18145801	-0.058330502	-0.9102706	0	0	0.4	4.9539198e-18
3.760038837025973e-09	-0.17681685	-0.055759832	-0.9178703	0	0	0.4	4.215336e-18
3.770023630770086e-09	-0.17127734	-0.046153378	-0.9244791	0	0	0.4	5.2008005e-18
3.780053153931505e-09	-0.16293174	-0.02935317	-0.9275052	0	0	0.4	3.69865e-18