# t (s)	mx ()	my ()	mz ()	B_extx (T)	B_exty (T)	B_extz (T)	E_total (J)
0	0	0	-1	0	0	0.4	1.2498702e-18
1.002711979496208e-11	-0.011840104	-0.0017139865	-0.9751124	0	0	0.4	4.8554534e-18
2.0050694563215696e-11	-0.018574828	-0.026777273	-0.9700108	0	0	0.4	5.1660974e-18
3.0057272790978516e-11	-0.010357735	-0.026429059	-0.96482253	0	0	0.4	4.6216045e-18
4.0000015369557757e-11	-0.0121175945	-0.0010904961	-0.96473813	0	0	0.4	4.8514776e-18
5.000533370873242e-11	0.0019990534	-0.006260058	-0.9626695	0	0	0.4	5.113196e-18
6.000383259811702e-11	0.015682627	0.0055289203	-0.96301943	0	0	0.4	5.767315e-18
7.003136044778148e-11	0.027273063	-0.00041435036	-0.9650871	0	0	0.4	4.463658e-18
8.003493806126128e-11	0.027081382	0.012825794	-0.9617018	0	0	0.4	4.836148e-18
9.004692065578935e-11	0.030564139	0.0069704596	-0.96095294	0	0	0.4	4.667357e-18
1.0000413866551037e-10	0.010880163	0.029017974	-0.9584806	0	0	0.4	4.4700427e-18
1.1006422849038829e-10	0.0045818132	0.0350513	-0.95645785	0	0	0.4	4.7149353e-18
1.2002948754092635e-10	0.019286267	0.03473583	-0.9528472	0	0	0.4	4.2605083e-18
1.300073881095228e-10	0.0127540305	0.05022323	-0.9499259	0	0	0.4	5.044265e-18
1.4005538625527956e-10	0.020899473	0.068285555	-0.9490251	0	0	0.4	4.7230772e-18
1.5005847967207058e-10	0.029220294	0.071678475	-0.94633263	0	0	0.4	3.965743e-18
1.600264888731145e-10	0.027585013	0.08492744	-0.94734025	0	0	0.4	4.40963e-18
1.700277549380925e-10	0.025047218	0.07431767	-0.951842	0	0	0.4	4.78883e-18
1.8001084424368938e-10	0.034820836	0.06468892	-0.9539539	0	0	0.4	4.6792528e-18
1.9003631446299688e-10	0.036902633	0.06783267	-0.9478824	0	0	0.4	4.906395e-18
2.000601539566663e-10	0.02897162	0.07616635	-0.9529413	0	0	0.4	4.416288e-18
2.1002353594215184e-10	0.041105956	0.05768122	-0.95325834	0	0	0.4	4.472481e-18
2.2004675648554082e-10	0.034991737	0.062795386	-0.9508877	0	0	0.4	5.017619e-18
2.300650447960793e-10	0.04068348	0.07696926	-0.94560593	0	0	0.4	4.732282e-18
2.400457868576765e-10	0.040223613	0.07843335	-0.94015175	0	0	0.4	4.5013118e-18
2.500653931554379e-10	0.048734233	0.07563828	-0.9408425	0	0	0.4	5.6873887e-18
2.600654824944498e-10	0.04592028	0.06323228	-0.94234633	0	0	0.4	4.4227974e-18
2.70063770564048e-10	0.055752352	0.073779434	-0.93939507	0	0	0.4	5.1796052e-18
2.8000840574604575e-10	0.04611268	0.07030092	-0.9378283	0	0	0.4	5.2947484e-18
2.900493841671154e-10	0.04343986	0.07158502	-0.9431613	0	0	0.4	5.3176828e-18
3.0000439525104764e-10	0.06673915	0.062757425	-0.94210273	0	0	0.4	4.5275677e-18
3.1000569122006936e-10	0.06557562	0.04631425	-0.9421105	0	0	0.4	4.232123e-18
3.20006040930584e-10	0.084852606	0.031062892	-0.9410506	0	0	0.4	4.1162e-18
3.3005385044914723e-10	0.10058662	0.006151906	-0.94300187	0	0	0.4	5.1260614e-18
3.400550867788628e-10	0.09798287	0.012258605	-0.9443022	0	0	0.4	4.463477e-18
3.500286733393935e-10	0.08396987	0.0050029284	-0.9450427	0	0	0.4	4.4281547e-18
3.600510887343655e-10	0.08995739	-0.011863046	-0.94976753	0	0	0.4	4.418164e-18
3.7000187290814067e-10	0.08449464	0.00080271426	-0.94500023	0	0	0.4	4.3505006e-18
3.800461635623317e-10	0.07614953	0.0064299954	-0.9463187	0	0	0.4	5.0198353e-18
3.900634384635038e-10	0.08229393	-0.009773677	-0.9407173	0	0	0.4	4.407758e-18
4.000133966023832e-10	0.07733426	0.0046434025	-0.93958896	0	0	0.4	4.5625256e-18
4.100003967117364e-10	0.0781895	-0.003513773	-0.9403866	0	0	0.4	4.0955888e-18
4.2005980416088623e-10	0.0753474	0.0061434605	-0.934159	0	0	0.4	3.5494634e-18
4.300603211127533e-10	0.08626944	-0.0031882003	-0.933848	0	0	0.4	4.737137e-18
4.400365286190664e-10	0.07506394	-0.00088626175	-0.9382511	0	0	0.4	4.474959e-18
4.5005648806033474e-10	0.070535176	-0.011805438	-0.9423995	0	0	0.4	4.569296e-18
4.6005614541787583e-10	0.07313041	-0.008123469	-0.94289076	0	0	0.4	4.674506e-18
4.700116025777884e-10	0.06953506	-0.00749059	-0.9448818	0	0	0.4	3.7273933e-18
4.800555392239622e-10	0.06507709	0.0010661327	-0.95002276	0	0	0.4	4.446288e-18
4.900173215370506e-10	0.053129077	0.0032248849	-0.94366807	0	0	0.4	4.27733e-18
5.00006420801659e-10	0.07173124	0.005265128	-0.9386567	0	0	0.4	4.170263e-18
5.100485881087108e-10	0.061304037	0.0026232363	-0.94442886	0	0	0.4	4.3182856e-18
5.200463548520514e-10	0.06723277	0.007507646	-0.93943065	0	0	0.4	4.3779374e-18
5.300097446137012e-10	0.07533355	0.012263846	-0.93520623	0	0	0.4	4.4671446e-18
5.400060966062323e-10	0.06983756	0.010097958	-0.9353172	0	0	0.4	5.075197e-18
5.500543318680254e-10	0.07161133	0.017494062	-0.9322191	0	0	0.4	5.2824763e-18
5.600227409982376e-10	0.06255286	-0.0012136468	-0.93739235	0	0	0.4	4.9682933e-18
5.700571292653351e-10	0.067948945	0.007930112	-0.937153	0	0	0.4	4.7010225e-18
5.800429581349158e-10	0.06204094	0.015484091	-0.9391589	0	0	0.4	4.4105212e-18
5.900387010488603e-10	0.050956152	-0.005612641	-0.93982625	0	0	0.4	4.7406134e-18
6.000012508682897e-10	0.043282595	-0.011724751	-0.94329023	0	0	0.4	4.1695846e-18
6.100182044464891e-10	0.04082248	-0.012144751	-0.9436363	0	0	0.4	4.9340455e-18
6.2004988003054e-10	0.04892553	-0.010430219	-0.9399092	0	0	0.4	4.26312e-18
6.300415486538496e-10	0.06129137	-0.014578208	-0.93921494	0	0	0.4	4.888165e-18
6.400376389111863e-10	0.048439205	-0.015843472	-0.9410198	0	0	0.4	4.0485544e-18
6.500313563054661e-10	0.030064518	-0.025773222	-0.9392104	0	0	0.4	4.5267604e-18
6.600115378965784e-10	0.029685702	-0.022760907	-0.9406943	0	0	0.4	3.5473752e-18
6.70011956911353e-10	0.026973156	0.0087784715	-0.94127005	0	0	0.4	4.9772686e-18
6.800009882375096e-10	0.034406215	0.015419655	-0.93945205	0	0	0.4	4.1976273e-18
6.90062244686034e-10	0.020006198	0.021388195	-0.93761843	0	0	0.4	3.914877e-18
7.00034871253786e-10	0.02188922	0.035499945	-0.9369384	0	0	0.4	5.014104e-18
7.100167846524838e-10	0.01589631	0.018408366	-0.9399307	0	0	0.4	4.7449417e-18
7.200370426837123e-10	0.017432224	0.02003805	-0.94573265	0	0	0.4	4.6936325e-18
7.300022294873942e-10	0.015262357	0.029214272	-0.94771194	0	0	0.4	4.4568673e-18
7.400595049736107e-10	0.007569022	0.045222696	-0.948646	0	0	0.4	5.56012e-18
7.500169647004611e-10	0.012770828	0.045101594	-0.94405735	0	0	0.4	5.1290306e-18
7.600246377463282e-10	0.014997697	0.04301668	-0.94652	0	0	0.4	4.1140663e-18
7.700038476280652e-10	0.022161627	0.036031835	-0.9500611	0	0	0.4	5.414713e-18
7.800504816168132e-10	0.025933446	0.040484432	-0.94862115	0	0	0.4	4.261593e-18
7.900343201633296e-10	0.022606973	0.06569405	-0.9470425	0	0	0.4	4.7161264e-18
8.000222634121251e-10	0.02771732	0.057979133	-0.94669	0	0	0.4	4.506424e-18
8.100246052062355e-10	0.014399815	0.055908624	-0.9455851	0	0	0.4	4.570945e-18
8.200163422084854e-10	0.022908412	0.059126604	-0.94812816	0	0	0.4	4.6990112e-18
8.300519135657395e-10	0.01920753	0.06043803	-0.949847	0	0	0.4	4.0641133e-18
8.40036981635406e-10	0.015050282	0.06446593	-0.9504502	0	0	0.4	4.5258753e-18
8.500649598324467e-10	0.012629774	0.05134651	-0.95419854	0	0	0.4	4.7006834e-18
8.600031345448725e-10	0.028152555	0.05979469	-0.95534104	0	0	0.4	4.589437e-18
8.700610924715749e-10	0.039625037	0.0707634	-0.95727384	0	0	0.4	4.2394834e-18
8.800395053518192e-10	0.051386587	0.072299786	-0.9568147	0	0	0.4	4.031435e-18
8.900087849192587e-10	0.055487663	0.043114554	-0.954995	0	0	0.4	4.4032458e-18
9.000235122908078e-10	0.047502313	0.04015741	-0.9566231	0	0	0.4	4.3517633e-18
9.100638283597638e-10	0.034574423	0.053857494	-0.95796084	0	0	0.4	4.8073893e-18
9.200095858435412e-10	0.029897125	0.053845566	-0.9524497	0	0	0.4	5.714736e-18
9.300009099508664e-10	0.037833754	0.0471382	-0.9538828	0	0	0.4	4.075476e-18
9.400224134032502e-10	0.04323821	0.038981777	-0.9553346	0	0	0.4	5.0038413e-18
9.50024518969203e-10	0.058434762	0.054588806	-0.95349663	0	0	0.4	4.840902e-18
9.600148802183326e-10	0.057404317	0.044842362	-0.9509223	0	0	0.4	5.1505757e-18
9.70032062207053e-10	0.05034213	0.061189447	-0.95161664	0	0	0.4	4.2780024e-18
9.80057227415498e-10	0.053758178	0.049602237	-0.95245516	0	0	0.4	4.2634593e-18
9.900577472278612e-10	0.053596713	0.050642554	-0.9532693	0	0	0.4	5.2299818e-18
1.0000275625049045e-09	0.06316612	0.049411256	-0.9544434	0	0	0.4	5.1188443e-18
1.0100100212804125e-09	0.073697425	0.046950392	-0.9538145	0	0	0.4	4.9564365e-18
1.020000509271699e-09	0.09099273	0.04743263	-0.9520186	0	0	0.4	5.1128294e-18
1.0300141873508787e-09	0.09084403	0.041400425	-0.9524079	0	0	0.4	5.238189e-18
1.0400011436966365e-09	0.07548928	0.035725698	-0.95410204	0	0	0.4	4.159363e-18
1.0500035800602276e-09	0.06480094	0.016927699	-0.9539705	0	0	0.4	4.4613585e-18
1.0600202372097054e-09	0.075298406	0.015569288	-0.95307827	0	0	0.4	4.2035445e-18
1.0700393167341148e-09	0.06864835	0.009498023	-0.95289075	0	0	0.4	4.5939022e-18
1.0800113795789459e-09	0.08108263	-0.0006909206	-0.9527689	0	0	0.4	4.6469104e-18
1.090035833669766e-09	0.07676198	0.0019855264	-0.9542719	0	0	0.4	5.174793e-18
1.1000281524426956e-09	0.081789196	-0.010099354	-0.955495	0	0	0.4	5.3322986e-18
1.1100185015373906e-09	0.07109441	-0.020271383	-0.9569573	0	0	0.4	4.7164486e-18
1.120003379722801e-09	0.069948316	-0.027867703	-0.95669824	0	0	0.4	4.576601e-18
1.1300647185329773e-09	0.0845708	-0.033976603	-0.9551972	0	0	0.4	4.2748433e-18
1.1400183180080365e-09	0.07074644	-0.024317196	-0.9565485	0	0	0.4	3.83178e-18
1.150029517293549e-09	0.07638443	-0.031939927	-0.9549216	0	0	0.4	3.674768e-18
1.1600520472306524e-09	0.06957312	-0.023119655	-0.9525578	0	0	0.4	4.7919623e-18
1.1700528958264666e-09	0.07371292	-0.022538813	-0.9487467	0	0	0.4	4.6254174e-18
1.1800516487398658e-09	0.094316326	-0.027987052	-0.9471428	0	0	0.4	4.2320235e-18
1.1900531127177328e-09	0.09516234	-0.027348993	-0.9464967	0	0	0.4	4.2861588e-18
1.2000254097816194e-09	0.111567475	-0.025668832	-0.9459743	0	0	0.4	4.5464667e-18
1.210005051189608e-09	0.10760018	-0.035265192	-0.9446032	0	0	0.4	4.1371596e-18
1.2200548424233482e-09	0.101664774	-0.049863826	-0.9430544	0	0	0.4	4.2535414e-18
1.2300665904946302e-09	0.09035291	-0.05798254	-0.94384336	0	0	0.4	5.0533324e-18
1.240049167289087e-09	0.08517157	-0.066245034	-0.9461851	0	0	0.4	5.241313e-18
1.2500469854339643e-09	0.0737836	-0.07139985	-0.945472	0	0	0.4	5.1431547e-18
1.260006611981184e-09	0.088211	-0.05462499	-0.9467336	0	0	0.4	4.7584715e-18
1.270008170229264e-09	0.096720524	-0.039464787	-0.9449291	0	0	0.4	3.2278525e-18
1.2800272149184845e-09	0.095250584	-0.038526703	-0.94720954	0	0	0.4	4.5154354e-18
1.2900597260238179e-09	0.100283645	-0.03642417	-0.9504754	0	0	0.4	5.0617944e-18
1.3000385013171366e-09	0.09737588	-0.05160843	-0.9519093	0	0	0.4	4.3360456e-18
1.3100170296665552e-09	0.09501411	-0.079250485	-0.94847935	0	0	0.4	4.4106317e-18
1.3200153893690902e-09	0.089438036	-0.07259931	-0.9498126	0	0	0.4	4.5193294e-18
1.330001741292515e-09	0.087736346	-0.064015195	-0.9474286	0	0	0.4	4.2743574e-18
1.3400201681757005e-09	0.07251774	-0.060509685	-0.9503342	0	0	0.4	4.8892198e-18
1.3500422973315566e-09	0.08860315	-0.056514554	-0.9467816	0	0	0.4	3.920901e-18
1.3600439829851357e-09	0.06959606	-0.07307003	-0.9450569	0	0	0.4	5.039213e-18
1.3700257206617894e-09	0.066610314	-0.07408996	-0.94342047	0	0	0.4	5.0910225e-18
1.380028834068786e-09	0.057871897	-0.08362562	-0.94130385	0	0	0.4	4.7997176e-18
1.3900536311531311e-09	0.059163578	-0.078673065	-0.94403076	0	0	0.4	3.3652119e-18
1.4000461770154508e-09	0.063183814	-0.078826465	-0.9460682	0	0	0.4	3.4378365e-18
1.4100374653415846e-09	0.060801614	-0.0865328	-0.9457103	0	0	0.4	5.2050576e-18
1.420013564361366e-09	0.06379521	-0.09064591	-0.94074553	0	0	0.4	4.9562015e-18
1.4300514949799216e-09	0.06969718	-0.09197493	-0.94340897	0	0	0.4	5.0063237e-18
1.4400009178183518e-09	0.06558337	-0.09564402	-0.9440103	0	0	0.4	5.172232e-18
1.4500122477257928e-09	0.034675937	-0.08490916	-0.9489092	0	0	0.4	4.892964e-18
1.4600187351629959e-09	0.03491303	-0.08811255	-0.94710594	0	0	0.4	5.5524904e-18
1.4700500637441809e-09	0.022311313	-0.087752104	-0.94374365	0	0	0.4	4.3463436e-18
1.480061576222694e-09	0.042856436	-0.07874872	-0.93786323	0	0	0.4	5.0465305e-18
1.4900421184969153e-09	0.055023953	-0.07101243	-0.9415004	0	0	0.4	4.9632446e-18
1.500066143876386e-09	0.0573929	-0.0792593	-0.9442812	0	0	0.4	5.1515386e-18
1.5100389080378103e-09	0.05499324	-0.08972045	-0.94850135	0	0	0.4	4.5414015e-18
1.520005850815403e-09	0.052158948	-0.09143186	-0.94577456	0	0	0.4	5.4028116e-18
1.530052779904823e-09	0.0425828	-0.0881844	-0.94704914	0	0	0.4	4.272404e-18
1.540002869648707e-09	0.033826485	-0.072931804	-0.94595516	0	0	0.4	4.574386e-18
1.5500573360537397e-09	0.038670626	-0.07748322	-0.94258213	0	0	0.4	4.1146962e-18
1.5600548485985584e-09	0.024874054	-0.086666696	-0.94050694	0	0	0.4	4.3980536e-18
1.5700108813536567e-09	0.05913439	-0.082729556	-0.9420643	0	0	0.4	4.483737e-18
1.5800193115179512e-09	0.061111245	-0.09621649	-0.93517405	0	0	0.4	4.8445566e-18
1.5900391555548828e-09	0.06034847	-0.09533466	-0.9421813	0	0	0.4	4.2892255e-18
1.6000262482510862e-09	0.07029183	-0.11281964	-0.94484687	0	0	0.4	3.2695308e-18
1.610021297652723e-09	0.07451678	-0.12134174	-0.9402457	0	0	0.4	4.0279068e-18
1.6200588850021682e-09	0.060442563	-0.13322227	-0.9421376	0	0	0.4	3.5310454e-18
1.6300297706151074e-09	0.04099087	-0.14036855	-0.9415474	0	0	0.4	4.7227997e-18
1.6400464790085328e-09	0.012821907	-0.13112059	-0.94069916	0	0	0.4	4.4190792e-18
1.6500343065223444e-09	0.022259545	-0.15208332	-0.93979454	0	0	0.4	5.07925e-18
1.6600275981541719e-09	0.02952606	-0.16296653	-0.94068587	0	0	0.4	4.500176e-18
1.6700016120052586e-09	0.017557083	-0.15839949	-0.9398697	0	0	0.4	5.1881107e-18
1.6800495106114785e-09	0.01308733	-0.15375616	-0.93771255	0	0	0.4	4.842262e-18
1.6900572861017552e-09	0.010686857	-0.16993232	-0.9389751	0	0	0.4	3.817615e-18
1.7000047421041282e-09	0.0036343378	-0.1911514	-0.9316812	0	0	0.4	3.989311e-18
1.7100065726717824e-09	0.0032136005	-0.17593922	-0.9378178	0	0	0.4	4.9290444e-18
1.7200232474343244e-09	0.0077111335	-0.1929713	-0.93572074	0	0	0.4	4.7363655e-18
1.7300647382853234e-09	-0.0008345261	-0.17477109	-0.9381363	0	0	0.4	4.795001e-18
1.7400157445545373e-09	-0.028834142	-0.17414217	-0.93845564	0	0	0.4	4.4801157e-18
1.750055241912024e-09	-0.020585062	-0.17855632	-0.9366314	0	0	0.4	4.7807396e-18
1.7600649035270025e-09	-0.03316433	-0.17885357	-0.9337759	0	0	0.4	5.152368e-18
1.770064243456642e-09	-0.03450363	-0.17525326	-0.93180156	0	0	0.4	4.6154763e-18
1.7800042123632246e-09	-0.021924134	-0.17576969	-0.9311955	0	0	0.4	4.493821e-18
1.7900236248573793e-09	-0.006372866	-0.19384484	-0.9320027	0	0	0.4	4.516439e-18
1.8000518902144463e-09	-0.0023897316	-0.19370694	-0.93362635	0	0	0.4	5.2507783e-18
1.8100092170238836e-09	-0.008726564	-0.19280262	-0.9273603	0	0	0.4	5.4054264e-18
1.820046043838203e-09	-0.0075811623	-0.18664546	-0.93253344	0	0	0.4	4.2932258e-18
1.8300376237141505e-09	-0.024965217	-0.17724083	-0.93413	0	0	0.4	3.918128e-18
1.840001935930891e-09	-0.022564005	-0.15983273	-0.9317143	0	0	0.4	4.9376417e-18
1.850042393816976e-09	-0.02700866	-0.14203547	-0.93266726	0	0	0.4	4.4972925e-18
1.8600361194701883e-09	-0.030009205	-0.1486677	-0.930887	0	0	0.4	4.9027346e-18
1.870018644986078e-09	-0.021969372	-0.14054526	-0.9246657	0	0	0.4	5.2199733e-18
1.880056710991961e-09	-0.014472499	-0.18102284	-0.9190973	0	0	0.4	4.458566e-18
1.8900434544845197e-09	-0.029589519	-0.18291761	-0.9248349	0	0	0.4	4.1268008e-18
1.9000121412097715e-09	-0.03674111	-0.18387358	-0.92404085	0	0	0.4	4.979388e-18
1.910011692637425e-09	-0.04810661	-0.19377926	-0.9226129	0	0	0.4	4.4965468e-18
1.920059194929753e-09	-0.05730154	-0.1788173	-0.9245779	0	0	0.4	4.5689007e-18
1.9300628582061606e-09	-0.055060655	-0.1798174	-0.92380184	0	0	0.4	4.38571e-18
1.9400315185164207e-09	-0.04425589	-0.17805807	-0.921826	0	0	0.4	4.9353425e-18
1.9500467307381466e-09	-0.043149017	-0.17304245	-0.9279776	0	0	0.4	4.2714097e-18
1.9600421782456595e-09	-0.030376649	-0.15849352	-0.9276376	0	0	0.4	4.8452952e-18
1.970005558380499e-09	-0.020561561	-0.14791495	-0.93202	0	0	0.4	4.927632e-18
1.980023132301591e-09	-0.021673132	-0.1303819	-0.931393	0	0	0.4	4.5950652e-18
1.9900199448395726e-09	0.0017349978	-0.14177695	-0.93424624	0	0	0.4	5.1732082e-18
2.00003053655028e-09	-0.0027304506	-0.15644109	-0.9307156	0	0	0.4	3.8870917e-18
2.0100477188307594e-09	-0.0029331897	-0.16722704	-0.93163526	0	0	0.4	5.053962e-18
2.0200508911260595e-09	-0.026790144	-0.15450162	-0.9292655	0	0	0.4	4.637346e-18
2.030027628180246e-09	-0.020229042	-0.15937093	-0.93114567	0	0	0.4	4.0467892e-18
2.0400527826093137e-09	-0.041987874	-0.17342384	-0.9310054	0	0	0.4	4.477084e-18
2.0500199787994067e-09	-0.032730285	-0.17631856	-0.9288332	0	0	0.4	4.5382644e-18
2.0600452840243472e-09	-0.039707925	-0.16697009	-0.9278833	0	0	0.4	4.212681e-18
2.0700290039316732e-09	-0.020738902	-0.16271281	-0.9267321	0	0	0.4	3.833765e-18
2.0800293414981613e-09	-0.014947609	-0.15580383	-0.9234968	0	0	0.4	4.3662696e-18
2.0900279714794426e-09	-0.025579011	-0.16386938	-0.9223817	0	0	0.4	3.785127e-18
2.1000061818503613e-09	-0.04514872	-0.16847566	-0.9292341	0	0	0.4	4.319446e-18
2.1100293141925985e-09	-0.058340546	-0.1654243	-0.92495745	0	0	0.4	5.289587e-18
2.12000162119502e-09	-0.057388283	-0.14983924	-0.9308771	0	0	0.4	4.3029675e-18
2.13001459018157e-09	-0.051661234	-0.15221468	-0.93089545	0	0	0.4	4.223712e-18
2.140034079243837e-09	-0.037233233	-0.15298794	-0.9277174	0	0	0.4	4.855757e-18
2.1500351179747094e-09	-0.03269194	-0.1632745	-0.9310288	0	0	0.4	3.975182e-18
2.1600092155740313e-09	-0.030515287	-0.16881557	-0.93242854	0	0	0.4	5.0235175e-18
2.170045801268298e-09	-0.038009718	-0.16903055	-0.9305319	0	0	0.4	4.8907893e-18
2.180008721442126e-09	-0.032050192	-0.15988211	-0.92994136	0	0	0.4	4.719636e-18
2.190058619660687e-09	-0.045708284	-0.1628427	-0.93411505	0	0	0.4	4.10988e-18
2.2000323474901965e-09	-0.064349346	-0.17200737	-0.92967004	0	0	0.4	4.2708162e-18
2.210020602404647e-09	-0.078647286	-0.1591424	-0.93007225	0	0	0.4	5.1740474e-18
2.220015411421946e-09	-0.08420749	-0.16052622	-0.9286042	0	0	0.4	3.987482e-18
2.2300436912767735e-09	-0.09314336	-0.1421357	-0.93680334	0	0	0.4	4.948508e-18
2.2400640293071583e-09	-0.08574604	-0.13855362	-0.9411186	0	0	0.4	4.5041353e-18
2.2500353757498094e-09	-0.085063785	-0.13049656	-0.93880135	0	0	0.4	4.057231e-18
2.2600215888299423e-09	-0.09294781	-0.14273703	-0.9365744	0	0	0.4	4.7831487e-18
2.270066893717644e-09	-0.099462934	-0.14240904	-0.9389992	0	0	0.4	4.0134406e-18
2.28005631166678e-09	-0.096216105	-0.13674524	-0.9374272	0	0	0.4	4.6781224e-18
2.2900112786821284e-09	-0.115267426	-0.11886797	-0.9353143	0	0	0.4	3.4735245e-18
2.3000341731017765e-09	-0.09486268	-0.10860118	-0.93632656	0	0	0.4	4.986244e-18
2.310030990030251e-09	-0.10532135	-0.10037654	-0.93874425	0	0	0.4	5.1718107e-18
2.320001486895798e-09	-0.11201405	-0.1073724	-0.93398756	0	0	0.4	4.949248e-18
2.3300534468980943e-09	-0.11597363	-0.115744114	-0.9344595	0	0	0.4	3.8224384e-18
2.3400575690958254e-09	-0.13033365	-0.11227978	-0.93097734	0	0	0.4	4.1843564e-18
2.35001693717122e-09	-0.12900314	-0.13710603	-0.928404	0	0	0.4	4.207426e-18
2.360009418640516e-09	-0.14789832	-0.14159043	-0.928643	0	0	0.4	4.852386e-18
2.3700304491094376e-09	-0.15015283	-0.14549468	-0.93047947	0	0	0.4	3.2500596e-18
2.380050833327206e-09	-0.15840067	-0.14950037	-0.92638487	0	0	0.4	4.0908333e-18
2.390025027600174e-09	-0.164394	-0.15691997	-0.9224451	0	0	0.4	4.8856765e-18
2.4000182809439086e-09	-0.1740714	-0.14569099	-0.9200727	0	0	0.4	5.276782e-18
2.410029252227946e-09	-0.1638886	-0.16844392	-0.91697866	0	0	0.4	4.4276687e-18
2.4200249968633952e-09	-0.17207868	-0.17470966	-0.9127394	0	0	0.4	4.176217e-18
2.4300221173970224e-09	-0.15832715	-0.17890058	-0.9073363	0	0	0.4	4.9206774e-18
2.440000441345236e-09	-0.13980216	-0.2131689	-0.9080044	0	0	0.4	4.732318e-18
2.450032377532258e-09	-0.13616475	-0.21558385	-0.90339684	0	0	0.4	4.169481e-18
2.460025857066167e-09	-0.15459807	-0.22910905	-0.907775	0	0	0.4	5.0539486e-18
2.4700122795039303e-09	-0.1514836	-0.22257371	-0.9098266	0	0	0.4	5.4319507e-18
2.480062184764588e-09	-0.14879948	-0.22125286	-0.9084054	0	0	0.4	5.020079e-18
2.4900043475541663e-09	-0.1555274	-0.20143308	-0.9173737	0	0	0.4	5.23541e-18
2.5000630086908255e-09	-0.14936791	-0.18471737	-0.9125882	0	0	0.4	4.567774e-18
2.510044104820729e-09	-0.125533	-0.17799167	-0.91896725	0	0	0.4	5.090383e-18
2.5200207243651984e-09	-0.11441627	-0.18001357	-0.92526305	0	0	0.4	4.4256198e-18
2.530001016189855e-09	-0.1311226	-0.19105093	-0.92520136	0	0	0.4	4.620041e-18
2.5400033192582103e-09	-0.14141954	-0.18824537	-0.92203385	0	0	0.4	4.0585505e-18
2.5500486946018325e-09	-0.14798641	-0.18888131	-0.917492	0	0	0.4	4.119743e-18
2.5600035565673725e-09	-0.14892338	-0.20201127	-0.916223	0	0	0.4	5.2570194e-18
2.5700609943936494e-09	-0.14859703	-0.21976693	-0.90603644	0	0	0.4	4.6508098e-18
2.5800232141456865e-09	-0.14756957	-0.21047172	-0.9090764	0	0	0.4	4.094361e-18
2.590002620455682e-09	-0.13651846	-0.21030784	-0.9091487	0	0	0.4	4.1388755e-18
2.6000261717576764e-09	-0.13215168	-0.20922084	-0.91107583	0	0	0.4	3.5804802e-18
2.6100553429367574e-09	-0.1289149	-0.20595524	-0.9075683	0	0	0.4	3.686823e-18
2.620050052347818e-09	-0.12803382	-0.2145921	-0.90906197	0	0	0.4	3.8079433e-18
2.630057326150605e-09	-0.11252034	-0.20658574	-0.9098154	0	0	0.4	4.3442136e-18
2.6400578429185393e-09	-0.08634158	-0.21504168	-0.9105629	0	0	0.4	4.0711824e-18
2.6500351914238826e-09	-0.061993167	-0.22611004	-0.91458476	0	0	0.4	4.9428595e-18
2.6600433106145786e-09	-0.07896677	-0.22234865	-0.9166541	0	0	0.4	4.8715963e-18
2.6700252557260907e-09	-0.09386675	-0.20391099	-0.9162672	0	0	0.4	5.186204e-18
2.6800171270339527e-09	-0.09098754	-0.18816039	-0.92353886	0	0	0.4	4.555596e-18
2.690058095252672e-09	-0.115826264	-0.15544616	-0.92560846	0	0	0.4	4.5027118e-18
2.7000251917115146e-09	-0.118737034	-0.13505952	-0.92932147	0	0	0.4	5.14749e-18
2.710048323616132e-09	-0.11558255	-0.13040395	-0.930795	0	0	0.4	4.983943e-18
2.720005043805356e-09	-0.10459894	-0.11886449	-0.9316896	0	0	0.4	4.702967e-18
2.7300416065419154e-09	-0.11785061	-0.1189771	-0.9280923	0	0	0.4	4.9901395e-18
2.740017861084853e-09	-0.10873643	-0.12321615	-0.92471504	0	0	0.4	4.8713675e-18
2.750008735566515e-09	-0.10582632	-0.13594715	-0.92462033	0	0	0.4	4.42938e-18
2.7600146858568387e-09	-0.10175011	-0.14119737	-0.9308177	0	0	0.4	4.5353854e-18
2.7700216442693267e-09	-0.11041667	-0.15794691	-0.92162687	0	0	0.4	4.631554e-18
2.7800094855788257e-09	-0.104672305	-0.14425157	-0.9211336	0	0	0.4	3.7811286e-18
2.790044495988382e-09	-0.104684494	-0.14010096	-0.91647565	0	0	0.4	5.115422e-18
2.8000312301934037e-09	-0.08713525	-0.116041854	-0.9205163	0	0	0.4	4.537525e-18
2.8100540132161846e-09	-0.06538578	-0.10573416	-0.92392033	0	0	0.4	4.303877e-18
2.8200472932266505e-09	-0.052765686	-0.08983857	-0.92616117	0	0	0.4	5.320287e-18
2.830027249288998e-09	-0.029342558	-0.10054304	-0.9251478	0	0	0.4	5.2109153e-18
2.840030331168192e-09	-0.038065664	-0.11306161	-0.9249189	0	0	0.4	4.259458e-18
2.850021949965087e-09	-0.040328406	-0.12744954	-0.9266081	0	0	0.4	5.246473e-18
2.86000367159859e-09	-0.051094376	-0.12730244	-0.9307218	0	0	0.4	4.0382337e-18
2.8700518183333165e-09	-0.063275486	-0.10997179	-0.9368542	0	0	0.4	3.7602808e-18
2.8800492166728327e-09	-0.08334233	-0.115908146	-0.93267363	0	0	0.4	4.844678e-18
2.890063308497466e-09	-0.08958924	-0.098530926	-0.9292167	0	0	0.4	4.033584e-18
2.9000398261571407e-09	-0.078960195	-0.087658286	-0.9286458	0	0	0.4	4.0083303e-18
2.9100070678330928e-09	-0.094673224	-0.08371199	-0.9297427	0	0	0.4	4.334381e-18
2.9200175138486963e-09	-0.06910885	-0.10316409	-0.9308889	0	0	0.4	5.1824114e-18
2.930010573567857e-09	-0.05795031	-0.1321198	-0.9294937	0	0	0.4	3.690027e-18
2.9400621299670336e-09	-0.053274285	-0.15226114	-0.9256796	0	0	0.4	5.1295955e-18
2.950065745654977e-09	-0.052598774	-0.16217215	-0.92475075	0	0	0.4	4.085491e-18
2.9600198283484365e-09	-0.051403068	-0.16062424	-0.92841876	0	0	0.4	3.8638003e-18
2.97005182566028e-09	-0.069638886	-0.17267229	-0.9290751	0	0	0.4	4.578146e-18
2.9800585755853325e-09	-0.09134559	-0.15687993	-0.93035936	0	0	0.4	4.4236072e-18
2.990014046458401e-09	-0.070710406	-0.11797503	-0.9309761	0	0	0.4	4.460929e-18
3.000038491155403e-09	-0.063921794	-0.1239962	-0.9273351	0	0	0.4	4.400784e-18
3.01000408378156e-09	-0.056947265	-0.12167208	-0.92592925	0	0	0.4	5.0876252e-18
3.0200018266709115e-09	-0.02617055	-0.13215992	-0.9298579	0	0	0.4	4.0003985e-18
3.0300239672005863e-09	-0.015856871	-0.15548973	-0.93355584	0	0	0.4	5.469975e-18
3.040047432458849e-09	-0.035858676	-0.17005324	-0.932886	0	0	0.4	5.3969523e-18
3.0500532758853137e-09	-0.054705966	-0.16903435	-0.9344428	0	0	0.4	4.067731e-18
3.0600305200837107e-09	-0.07215645	-0.15227665	-0.937914	0	0	0.4	4.627464e-18
3.0700014303280535e-09	-0.09369627	-0.14374134	-0.9352077	0	0	0.4	4.3063e-18
3.080023242319109e-09	-0.096620515	-0.14030783	-0.93366706	0	0	0.4	5.1409213e-18
3.0900275075014338e-09	-0.08886264	-0.122157246	-0.9321948	0	0	0.4	5.60549e-18
3.1000660639363423e-09	-0.09228264	-0.10801528	-0.9238814	0	0	0.4	4.8958885e-18
3.110040973574103e-09	-0.0888294	-0.118691675	-0.91791403	0	0	0.4	4.928928e-18
3.1200386129560347e-09	-0.057660114	-0.111484	-0.92142594	0	0	0.4	4.2656844e-18
3.130054484433736e-09	-0.051710345	-0.15005298	-0.923208	0	0	0.4	4.2902364e-18
3.1400273167615408e-09	-0.06840845	-0.16561314	-0.9265767	0	0	0.4	4.8897636e-18
3.150002385410013e-09	-0.067148104	-0.16135594	-0.9328316	0	0	0.4	5.1178173e-18
3.160038574916254e-09	-0.090318896	-0.16695175	-0.931542	0	0	0.4	4.4792012e-18
3.170040352471325e-09	-0.09938547	-0.15965189	-0.92578095	0	0	0.4	3.8500807e-18
3.180055233872898e-09	-0.0967315	-0.15708087	-0.93157804	0	0	0.4	5.0122165e-18
3.1900174557614723e-09	-0.10119755	-0.14540294	-0.9320249	0	0	0.4	4.688165e-18
3.200006194890056e-09	-0.08453465	-0.12887168	-0.9338443	0	0	0.4	4.456697e-18
3.2100133791192536e-09	-0.043871738	-0.14495629	-0.9379131	0	0	0.4	3.1322278e-18
3.22005532915351e-09	-0.024423039	-0.15641661	-0.93738335	0	0	0.4	5.0560435e-18
3.2300591653196278e-09	-0.03170067	-0.17349593	-0.93804336	0	0	0.4	3.3344352e-18
3.2400238236879415e-09	-0.045988724	-0.18150656	-0.94009453	0	0	0.4	4.3637036e-18
3.250045184113238e-09	-0.06611615	-0.17227444	-0.94209206	0	0	0.4	3.681041e-18
3.2600354179191305e-09	-0.078641474	-0.16707073	-0.9393848	0	0	0.4	4.1748004e-18
3.270032412257022e-09	-0.0962686	-0.12851754	-0.94115883	0	0	0.4	4.8594326e-18
3.28001146956245e-09	-0.08648678	-0.1269539	-0.94158244	0	0	0.4	4.4255846e-18
3.2900054553666172e-09	-0.08121149	-0.12637457	-0.93854815	0	0	0.4	4.2438464e-18
3.3000347478128134e-09	-0.07228825	-0.1378148	-0.93580794	0	0	0.4	3.983491e-18
3.310015161077196e-09	-0.05900368	-0.16505326	-0.93388015	0	0	0.4	5.2025785e-18
3.3200170095209367e-09	-0.044248234	-0.15894935	-0.9341252	0	0	0.4	5.321138e-18
3.330000658994931e-09	-0.05290756	-0.1647328	-0.93877834	0	0	0.4	4.570142e-18
3.3400351955838532e-09	-0.048236113	-0.1624722	-0.94149095	0	0	0.4	4.4175345e-18
3.3500597858287255e-09	-0.074589714	-0.15566115	-0.9449701	0	0	0.4	3.9319513e-18
3.3600139954612417e-09	-0.07709852	-0.14845648	-0.94283515	0	0	0.4	4.869146e-18
3.370001895144663e-09	-0.083167784	-0.12330109	-0.9437386	0	0	0.4	4.574476e-18
3.380062494147868e-09	-0.082468875	-0.11718214	-0.9415052	0	0	0.4	4.7448437e-18
3.3900349915752925e-09	-0.07787891	-0.116280496	-0.94254625	0	0	0.4	4.3085886e-18
3.40001624716698e-09	-0.08166577	-0.10713799	-0.9400951	0	0	0.4	4.2415684e-18
3.4100303041843644e-09	-0.0707334	-0.11695895	-0.9400988	0	0	0.4	4.2190178e-18
3.4200385875717e-09	-0.081413634	-0.12049589	-0.9379541	0	0	0.4	4.409439e-18
3.4300060426198547e-09	-0.10152927	-0.13018888	-0.9384896	0	0	0.4	5.899759e-18
3.440015324891852e-09	-0.11297389	-0.11391827	-0.94011295	0	0	0.4	4.8522952e-18
3.450035892398491e-09	-0.11584965	-0.108203016	-0.93732053	0	0	0.4	4.2663296e-18
3.4600200364663957e-09	-0.11596151	-0.10549012	-0.9300946	0	0	0.4	3.7119407e-18
3.4700030765071052e-09	-0.08758818	-0.10000751	-0.92863244	0	0	0.4	4.111376e-18
3.480038809312271e-09	-0.050071534	-0.09345261	-0.9372696	0	0	0.4	4.061704e-18
3.4900007878287296e-09	-0.043543886	-0.10355267	-0.9364609	0	0	0.4	4.1808777e-18
3.50001303738922e-09	-0.030196598	-0.12734099	-0.9388467	0	0	0.4	5.052192e-18
3.510020197798851e-09	-0.01870337	-0.15457894	-0.93639225	0	0	0.4	4.2240135e-18
3.5200027839635648e-09	-0.018573686	-0.1776347	-0.9388817	0	0	0.4	3.8484868e-18
3.530052673274825e-09	-0.032668505	-0.17136823	-0.93813246	0	0	0.4	4.8783626e-18
3.54001964182874e-09	-0.03204757	-0.15403403	-0.9426501	0	0	0.4	4.2160014e-18
3.5500027797499366e-09	-0.027826535	-0.13770874	-0.9403701	0	0	0.4	4.4714973e-18
3.560053747401544e-09	-0.030598385	-0.15148999	-0.9397203	0	0	0.4	4.2548777e-18
3.570000062625535e-09	-0.018938957	-0.14725815	-0.93730474	0	0	0.4	4.1014895e-18
3.5800476922466164e-09	-0.01941924	-0.14395031	-0.9356251	0	0	0.4	5.4752437e-18
3.590059861987892e-09	-0.0029904407	-0.15181555	-0.93635654	0	0	0.4	5.4048287e-18
3.600047140585238e-09	-0.002420087	-0.16259448	-0.9379862	0	0	0.4	3.4429662e-18
3.6100196262489586e-09	-0.008628126	-0.15877827	-0.9353688	0	0	0.4	4.8496214e-18
3.6200394789210637e-09	-0.01012905	-0.15833026	-0.9341652	0	0	0.4	4.3989084e-18
3.630049319335612e-09	-0.019947028	-0.15120229	-0.9378164	0	0	0.4	4.512308e-18
3.64002659572429e-09	-0.03282875	-0.13681813	-0.9370902	0	0	0.4	5.028943e-18
3.6500137741609165e-09	-0.016898885	-0.12634279	-0.93850565	0	0	0.4	3.757528e-18
3.6600151270919034e-09	0.0023642397	-0.13059716	-0.9362398	0	0	0.4	4.6588963e-18
3.670007238707171e-09	0.011487814	-0.13297242	-0.94071496	0	0	0.4	4.5081732e-18
3.680014873510381e-09	-0.0063970075	-0.12933235	-0.93923163	0	0	0.4	4.421896e-18
3.6900062744280966e-09	-0.004341069	-0.11829878	-0.94338447	0	0	0.4	4.3903744e-18
3.7000051997482815e-09	-0.0090854205	-0.10573623	-0.94613886	0	0	0.4	4.3827296e-18
3.7100620942655143e-09	-0.03128413	-0.10659048	-0.93918085	0	0	0.4	3.6225105e-18
3.7200610453127372e-09	-0.021173699	-0.10924714	-0.9416904	0	0	0.4	4.402435e-18
3.730035434486596e-09	-0.012120322	-0.10193819	-0.94164395	0	0	0.4	5.410896e-18
3.740023268854724e-09	-0.01465163	-0.112882614	-0.94202775	0	0	0.4	5.2936867e-18
3.750000357469659e-09	-0.01938477	-0.12326457	-0.9387659	0	0	0.4	4.8165486e-18
3.760036060518888e-09	-0.0216464	-0.11090739	-0.93995315	0	0	0.4	4.5289673e-18