# t (s)	mx ()	my ()	mz ()	B_extx (T)	B_exty (T)	B_extz (T)	E_total (J)
0	0	0	-1	0	0	0.41	1.3250005e-18
1.003836875174761e-11	0.004047133	0.00762109	-0.9764267	0	0	0.41	3.746351e-18
2.0048086160212488e-11	0.015671747	0.018807722	-0.96989614	0	0	0.41	4.5423684e-18
3.000977560123406e-11	0.033052005	0.014000335	-0.9664466	0	0	0.41	4.154225e-18
4.005902171467946e-11	0.015049922	0.02460756	-0.9644338	0	0	0.41	4.7154175e-18
5.004128408027447e-11	0.011622984	0.041966677	-0.96278644	0	0	0.41	5.9571943e-18
6.000149994131278e-11	0.013799493	0.048001528	-0.9600156	0	0	0.41	4.777106e-18
7.002521992360289e-11	0.037671067	0.03236886	-0.95829725	0	0	0.41	5.203548e-18
8.005149970934368e-11	0.046449013	0.02173594	-0.96085405	0	0	0.41	4.5405995e-18
9.004122722510469e-11	0.048906572	0.0133209	-0.96206033	0	0	0.41	4.3728684e-18
1.0005280827193764e-10	0.05039623	0.0014477035	-0.9624739	0	0	0.41	4.6851597e-18
1.1001947483522613e-10	0.040239047	0.0020579046	-0.9611391	0	0	0.41	4.1120554e-18
1.2001152763270406e-10	0.052421033	0.002947947	-0.9593307	0	0	0.41	4.8579283e-18
1.3001332689691625e-10	0.053373713	-0.012584602	-0.9596043	0	0	0.41	4.9432764e-18
1.4002179599419942e-10	0.05008858	-0.031282883	-0.9555836	0	0	0.41	4.7513895e-18
1.500437971210278e-10	0.046415865	-0.02478329	-0.95476	0	0	0.41	4.3693756e-18
1.6001909438820192e-10	0.043912366	-0.022023562	-0.95290685	0	0	0.41	4.056972e-18
1.7005127129872887e-10	0.05121139	-0.004829632	-0.9540742	0	0	0.41	4.306846e-18
1.8003495709225546e-10	0.03740192	0.002338769	-0.95536166	0	0	0.41	4.95856e-18
1.9003637053357095e-10	0.060291734	-0.002168949	-0.95558494	0	0	0.41	4.522394e-18
2.0003536415520054e-10	0.06617136	0.0039937063	-0.9518648	0	0	0.41	3.2988796e-18
2.1005871979953718e-10	0.050241143	-0.015062851	-0.95233756	0	0	0.41	4.4346745e-18
2.2005162680619744e-10	0.06705553	-0.015776668	-0.9535459	0	0	0.41	4.429095e-18
2.3001633354193306e-10	0.06554114	-0.035170507	-0.9537785	0	0	0.41	5.41966e-18
2.4005046114045267e-10	0.06283513	-0.057801127	-0.9528369	0	0	0.41	5.0201587e-18
2.5000524227463154e-10	0.048870794	-0.056195464	-0.9501794	0	0	0.41	4.319254e-18
2.600579859553411e-10	0.03861615	-0.069585465	-0.94896966	0	0	0.41	4.7196213e-18
2.700069650900482e-10	0.033158343	-0.08760204	-0.9498899	0	0	0.41	4.3674363e-18
2.8003035888383465e-10	0.033199653	-0.08796165	-0.94875616	0	0	0.41	4.1781885e-18
2.900273163367923e-10	0.023995522	-0.07383553	-0.9485353	0	0	0.41	4.6885623e-18
3.0000036119157135e-10	0.011918157	-0.06670017	-0.9467082	0	0	0.41	4.930247e-18
3.1005661673278004e-10	0.02238827	-0.049960196	-0.9460926	0	0	0.41	5.140254e-18
3.200614635468845e-10	0.01691239	-0.054731604	-0.95178086	0	0	0.41	5.245993e-18
3.3003415821370297e-10	0.035201564	-0.058535755	-0.95267385	0	0	0.41	4.522979e-18
3.4001069969578666e-10	0.04389977	-0.06388645	-0.95217717	0	0	0.41	4.4355525e-18
3.500213231030177e-10	0.04119413	-0.074779175	-0.95400393	0	0	0.41	4.452815e-18
3.60038110597164e-10	0.04018285	-0.084605046	-0.9526441	0	0	0.41	4.4836725e-18
3.700267620905036e-10	0.028077759	-0.06462983	-0.95147884	0	0	0.41	5.1035617e-18
3.800581317867737e-10	0.012837267	-0.056614693	-0.9511717	0	0	0.41	4.7291194e-18
3.900000276777461e-10	0.015646605	-0.02858644	-0.94942164	0	0	0.41	4.140768e-18
4.000130685765997e-10	0.049462445	-0.025041705	-0.94823015	0	0	0.41	5.095362e-18
4.100432480384569e-10	0.065658756	-0.018232694	-0.95173454	0	0	0.41	4.4854977e-18
4.200188731736371e-10	0.06018363	-0.03853928	-0.95187396	0	0	0.41	4.557926e-18
4.3003851747257897e-10	0.050065488	-0.056537822	-0.95109767	0	0	0.41	3.872208e-18
4.4005804684569534e-10	0.039709523	-0.059465386	-0.95072025	0	0	0.41	4.7266494e-18
4.5004315475055637e-10	0.007249346	-0.053726085	-0.9502068	0	0	0.41	4.451633e-18
4.6006408745452546e-10	-0.006904579	-0.050427653	-0.94847673	0	0	0.41	5.221901e-18
4.700531309531256e-10	-0.02210381	-0.04443508	-0.945559	0	0	0.41	4.0076814e-18
4.800255671843327e-10	-0.005123437	-0.035345826	-0.94591534	0	0	0.41	5.1389286e-18
4.900412947952656e-10	0.014491143	-0.029623188	-0.94662017	0	0	0.41	4.244268e-18
5.000349290147778e-10	0.050842468	-0.0185311	-0.94525164	0	0	0.41	4.336866e-18
5.10036091461376e-10	0.058953807	-0.032316867	-0.94421184	0	0	0.41	5.9149245e-18
5.200501347087074e-10	0.055740934	-0.06310299	-0.94434947	0	0	0.41	4.660107e-18
5.300032841017869e-10	0.032678753	-0.06779305	-0.94200486	0	0	0.41	5.075559e-18
5.400420502762652e-10	0.017079845	-0.072181895	-0.94102156	0	0	0.41	4.5781163e-18
5.500259329567274e-10	0.0044395346	-0.07625076	-0.9332495	0	0	0.41	4.8164113e-18
5.600150521734915e-10	-0.018142339	-0.059884742	-0.9337421	0	0	0.41	6.350543e-18
5.700436889418056e-10	0.0010707272	-0.046305858	-0.94023687	0	0	0.41	5.9097174e-18
5.800318798629279e-10	0.018883731	-0.03958232	-0.94223386	0	0	0.41	4.9309903e-18
5.900481575211236e-10	0.01809252	-0.031034147	-0.9421966	0	0	0.41	3.9306705e-18
6.000249983235256e-10	0.021978458	-0.037400115	-0.9393709	0	0	0.41	5.8135027e-18
6.100450744779435e-10	0.02376178	-0.034890044	-0.93963796	0	0	0.41	4.687022e-18
6.200407560077675e-10	0.0331638	-0.029204547	-0.93392044	0	0	0.41	3.5486396e-18
6.300155202609393e-10	0.008233497	-0.032893002	-0.9364319	0	0	0.41	4.1853577e-18
6.400492562754307e-10	0.0063438723	-0.049073026	-0.93424046	0	0	0.41	4.059471e-18
6.500283100868137e-10	0.0070678215	-0.051754553	-0.9372736	0	0	0.41	4.238177e-18
6.600588983790654e-10	0.017338222	-0.039239828	-0.934374	0	0	0.41	4.0988863e-18
6.700199639206013e-10	0.02611377	-0.045221783	-0.934594	0	0	0.41	4.6670457e-18
6.800592664189433e-10	0.02787492	-0.050068185	-0.9387596	0	0	0.41	4.154121e-18
6.900465933173515e-10	0.053559035	-0.06456886	-0.93157077	0	0	0.41	4.775608e-18
7.00051654551989e-10	0.053497005	-0.07241099	-0.9282088	0	0	0.41	5.084568e-18
7.100533503951975e-10	0.052939504	-0.09174988	-0.92372876	0	0	0.41	4.762524e-18
7.200305614685951e-10	0.054200247	-0.085397296	-0.9324899	0	0	0.41	5.1085773e-18
7.300497116874799e-10	0.050605703	-0.07850846	-0.9352275	0	0	0.41	4.838618e-18
7.400447897174972e-10	0.040364303	-0.083168745	-0.9356428	0	0	0.41	4.5420884e-18
7.500171153599458e-10	0.04472477	-0.08362841	-0.9332645	0	0	0.41	4.209944e-18
7.600594809685712e-10	0.03187844	-0.073034815	-0.9355917	0	0	0.41	4.661759e-18
7.700456563619628e-10	0.029636778	-0.0739287	-0.931839	0	0	0.41	4.515139e-18
7.800295672266714e-10	0.02997339	-0.07322088	-0.9335351	0	0	0.41	5.200944e-18
7.900070134841756e-10	0.038367566	-0.062317252	-0.9373799	0	0	0.41	4.4916887e-18
8.000553787392865e-10	0.036007285	-0.07688968	-0.937436	0	0	0.41	5.2037345e-18
8.100147635403284e-10	0.036126364	-0.0955917	-0.93575937	0	0	0.41	4.2818723e-18
8.200277711948365e-10	0.01825902	-0.094180405	-0.93109167	0	0	0.41	3.85614e-18
8.300572116373122e-10	0.0032269896	-0.10880003	-0.92631906	0	0	0.41	4.131176e-18
8.400534987488567e-10	0.016364593	-0.118210815	-0.92389876	0	0	0.41	4.6108962e-18
8.500414308157038e-10	0.018755851	-0.10772442	-0.92281777	0	0	0.41	4.5580216e-18
8.600049652798502e-10	0.0024247686	-0.11159529	-0.9227894	0	0	0.41	4.374739e-18
8.700485306085763e-10	-0.0011888102	-0.09944962	-0.92306954	0	0	0.41	5.6291183e-18
8.800509854408459e-10	-0.017334659	-0.095298596	-0.9211588	0	0	0.41	5.5620464e-18
8.900432731522108e-10	-0.0070133866	-0.09395791	-0.9246901	0	0	0.41	4.399716e-18
9.000200934529969e-10	-0.013267418	-0.07642428	-0.9301125	0	0	0.41	5.3190034e-18
9.100227429396075e-10	-0.007234216	-0.092943884	-0.9304159	0	0	0.41	4.213307e-18
9.200187004339164e-10	-0.009651391	-0.09095918	-0.9324007	0	0	0.41	5.2917544e-18
9.300485846974228e-10	-0.0021185759	-0.08593051	-0.93148834	0	0	0.41	5.5987314e-18
9.400575370578999e-10	-0.012921221	-0.07396551	-0.93699247	0	0	0.41	5.0384117e-18
9.5002291066437e-10	-0.008148304	-0.0874658	-0.93977827	0	0	0.41	4.6388967e-18
9.60057322099437e-10	-0.003694755	-0.08630082	-0.93670744	0	0	0.41	4.8536688e-18
9.700020470410587e-10	-0.008510533	-0.08542179	-0.9382897	0	0	0.41	4.7105822e-18
9.80048100053767e-10	0.0015659191	-0.09342941	-0.93678784	0	0	0.41	5.425901e-18
9.900141488699487e-10	-0.0049290727	-0.10354558	-0.93417966	0	0	0.41	4.1902228e-18
1.0000092116580405e-09	0.019144842	-0.09133127	-0.93660945	0	0	0.41	4.5473423e-18
1.0100218044187187e-09	0.010016559	-0.0926744	-0.93254113	0	0	0.41	4.7167654e-18
1.020059084771265e-09	0.010126194	-0.09372048	-0.9327896	0	0	0.41	4.218787e-18
1.0300513947795234e-09	0.01544731	-0.09067166	-0.9233865	0	0	0.41	4.8345042e-18
1.040032943541489e-09	0.024263335	-0.07944301	-0.9221372	0	0	0.41	4.830681e-18
1.0500391837891594e-09	0.044112023	-0.08037143	-0.9220888	0	0	0.41	4.8974304e-18
1.0600199969342584e-09	0.054121338	-0.07867758	-0.92194116	0	0	0.41	4.422467e-18
1.070036840446148e-09	0.04186634	-0.08177716	-0.9216651	0	0	0.41	3.637356e-18
1.0800428479867905e-09	0.03964797	-0.08389406	-0.9239535	0	0	0.41	4.723967e-18
1.0900440937371459e-09	0.031185836	-0.107183784	-0.92655134	0	0	0.41	4.5847606e-18
1.1000475117213035e-09	0.030899663	-0.09767589	-0.9256322	0	0	0.41	4.7677727e-18
1.1100163348902031e-09	0.040164564	-0.09881265	-0.92415637	0	0	0.41	5.361963e-18
1.1200628715109897e-09	0.039219696	-0.08915445	-0.9234979	0	0	0.41	4.921981e-18
1.130058327331333e-09	0.02556037	-0.10988848	-0.9261871	0	0	0.41	4.8951324e-18
1.1400311489337931e-09	0.022409167	-0.12084829	-0.92620695	0	0	0.41	5.3709305e-18
1.1500564951505639e-09	0.0498841	-0.11463684	-0.93014634	0	0	0.41	5.4585326e-18
1.160011231205538e-09	0.05394713	-0.114511736	-0.9339896	0	0	0.41	5.0532646e-18
1.1700167083067895e-09	0.054058872	-0.11436702	-0.9375913	0	0	0.41	4.670514e-18
1.1800038428123667e-09	0.06315804	-0.10999324	-0.9324982	0	0	0.41	5.2314595e-18
1.1900127225580887e-09	0.05076775	-0.09840007	-0.93725437	0	0	0.41	5.229349e-18
1.2000234163344836e-09	0.04527093	-0.10706181	-0.9365831	0	0	0.41	4.7867155e-18
1.2100101608019658e-09	0.057466812	-0.09493544	-0.9377261	0	0	0.41	4.3650317e-18
1.2200482041170599e-09	0.06598482	-0.088461965	-0.9409847	0	0	0.41	5.074056e-18
1.2300296738336768e-09	0.07085845	-0.07272122	-0.9405161	0	0	0.41	4.778798e-18
1.2400232100990045e-09	0.0699912	-0.08459616	-0.9355633	0	0	0.41	5.3210147e-18
1.2500424882294436e-09	0.0554156	-0.09074826	-0.9341413	0	0	0.41	4.0833382e-18
1.2600456919023273e-09	0.063728675	-0.119313866	-0.93167	0	0	0.41	5.2874903e-18
1.270042918674287e-09	0.07424617	-0.10769661	-0.9281968	0	0	0.41	5.4111087e-18
1.2800551981234131e-09	0.08757346	-0.096298985	-0.92985845	0	0	0.41	4.2005265e-18
1.2900212097260474e-09	0.10174028	-0.0784374	-0.93370575	0	0	0.41	4.833235e-18
1.3000452290228484e-09	0.11284142	-0.08725729	-0.9315186	0	0	0.41	5.5717654e-18
1.310058362595276e-09	0.12519747	-0.093914255	-0.93188727	0	0	0.41	4.69477e-18
1.320014905047437e-09	0.14425316	-0.07930164	-0.9314299	0	0	0.41	4.748289e-18
1.3300393833865465e-09	0.14497547	-0.083406836	-0.93701154	0	0	0.41	4.6479535e-18
1.3400335406202523e-09	0.15708713	-0.08746352	-0.93505245	0	0	0.41	4.656179e-18
1.3500432222721982e-09	0.15806052	-0.09958944	-0.93805873	0	0	0.41	5.230633e-18
1.3600070933477972e-09	0.15787403	-0.11003426	-0.9413012	0	0	0.41	4.201143e-18
1.3700606184390686e-09	0.14738785	-0.109246805	-0.9378066	0	0	0.41	5.0355426e-18
1.3800274561368954e-09	0.13753466	-0.118391804	-0.93775886	0	0	0.41	4.0980256e-18
1.3900654455691952e-09	0.13152076	-0.10004245	-0.9373894	0	0	0.41	4.1113164e-18
1.4000238708002608e-09	0.13661197	-0.08517367	-0.93223274	0	0	0.41	3.604915e-18
1.4100547309580905e-09	0.14727834	-0.068228625	-0.93884563	0	0	0.41	4.6578697e-18
1.420001657040619e-09	0.12302071	-0.0628727	-0.942845	0	0	0.41	4.293627e-18
1.4300258529849608e-09	0.13653837	-0.05880079	-0.94000953	0	0	0.41	4.4185296e-18
1.440030046622865e-09	0.15338193	-0.07292949	-0.934754	0	0	0.41	4.1037477e-18
1.450057652210866e-09	0.1397477	-0.074492976	-0.93730474	0	0	0.41	4.7556516e-18
1.4600191002213095e-09	0.13773754	-0.0606199	-0.9421847	0	0	0.41	4.4982127e-18
1.470026729115531e-09	0.1281501	-0.066486634	-0.9421746	0	0	0.41	4.913095e-18
1.4800505977065585e-09	0.120560184	-0.05898778	-0.9460057	0	0	0.41	4.8506136e-18
1.4900153305648945e-09	0.106980585	-0.048901517	-0.9461607	0	0	0.41	4.9860474e-18
1.5000256449476541e-09	0.11357708	-0.065078154	-0.9410585	0	0	0.41	4.8077197e-18
1.5100446116202396e-09	0.10227753	-0.058782395	-0.94070107	0	0	0.41	5.635623e-18
1.520064534001497e-09	0.1111982	-0.06582092	-0.9433579	0	0	0.41	4.4030613e-18
1.530065428392965e-09	0.111736394	-0.05798395	-0.94368273	0	0	0.41	4.6702857e-18
1.5400497390252224e-09	0.10597682	-0.0712071	-0.94438815	0	0	0.41	5.002872e-18
1.5500405582698775e-09	0.10115257	-0.088625304	-0.94117475	0	0	0.41	3.9802202e-18
1.5600092079960196e-09	0.095601246	-0.09417912	-0.9396455	0	0	0.41	4.8139012e-18
1.5700133886434607e-09	0.10367213	-0.098686375	-0.94289875	0	0	0.41	4.910759e-18
1.5800276048670782e-09	0.10160446	-0.0914015	-0.94299585	0	0	0.41	3.817179e-18
1.5900125384513046e-09	0.11495657	-0.08518025	-0.94135755	0	0	0.41	3.8122786e-18
1.6000654742386944e-09	0.119918175	-0.08034131	-0.93798363	0	0	0.41	4.242865e-18
1.6100460333997875e-09	0.12885778	-0.07768621	-0.934397	0	0	0.41	5.6280025e-18
1.6200315151444159e-09	0.11949892	-0.07059568	-0.93494046	0	0	0.41	4.9082565e-18
1.6300227093791705e-09	0.11848047	-0.06576988	-0.93079245	0	0	0.41	5.26588e-18
1.6400367008547526e-09	0.11626775	-0.07340067	-0.9353958	0	0	0.41	5.5982273e-18
1.6500566875852436e-09	0.102652505	-0.08310803	-0.93728083	0	0	0.41	3.9620115e-18
1.6600510377290029e-09	0.10747337	-0.0704199	-0.93731004	0	0	0.41	4.8639874e-18
1.670056078805294e-09	0.09922052	-0.08867092	-0.93626666	0	0	0.41	5.1612484e-18
1.6800027080002378e-09	0.095972426	-0.085786715	-0.9373439	0	0	0.41	4.6680792e-18
1.6900062810708999e-09	0.09494394	-0.08793637	-0.93679374	0	0	0.41	5.12674e-18
1.700019202819938e-09	0.09405524	-0.10665228	-0.9389694	0	0	0.41	4.615961e-18
1.7100368765803741e-09	0.09446025	-0.11503851	-0.92942834	0	0	0.41	4.730372e-18
1.7200270791067844e-09	0.0936626	-0.11163582	-0.9282354	0	0	0.41	4.888087e-18
1.7300038124463445e-09	0.09091773	-0.13862698	-0.9256752	0	0	0.41	4.7534753e-18
1.7400370743101649e-09	0.107195005	-0.13443495	-0.91690904	0	0	0.41	4.2907037e-18
1.7500050478174491e-09	0.0997614	-0.1474823	-0.91608304	0	0	0.41	3.820109e-18
1.7600335459983873e-09	0.105012	-0.15031905	-0.9128559	0	0	0.41	4.250121e-18
1.7700477398469087e-09	0.12579277	-0.15708047	-0.9036733	0	0	0.41	5.253001e-18
1.780018478705806e-09	0.14092404	-0.14307036	-0.89894027	0	0	0.41	5.1469308e-18
1.7900466347486914e-09	0.15249044	-0.13014647	-0.89814675	0	0	0.41	3.7568442e-18
1.8000111162044424e-09	0.1631179	-0.120928265	-0.8997117	0	0	0.41	4.5138133e-18
1.8100610540208869e-09	0.17361839	-0.112653725	-0.8968491	0	0	0.41	5.1376308e-18
1.8200003786544302e-09	0.17884131	-0.10850899	-0.8969059	0	0	0.41	5.6116805e-18
1.830000248451194e-09	0.17884253	-0.11589911	-0.897908	0	0	0.41	5.0069123e-18
1.8400272296660167e-09	0.1854314	-0.10006664	-0.897651	0	0	0.41	5.5559993e-18
1.8500417334258428e-09	0.18699004	-0.09778077	-0.8963402	0	0	0.41	5.0276617e-18
1.8600351858086324e-09	0.20626773	-0.07521384	-0.8934762	0	0	0.41	4.4474954e-18
1.8700579204345704e-09	0.19677167	-0.04720125	-0.8992287	0	0	0.41	4.815111e-18
1.8800613625139786e-09	0.2144586	0.0025977618	-0.8995435	0	0	0.41	4.5697684e-18
1.8900188082089314e-09	0.23150289	0.00074400223	-0.9016842	0	0	0.41	5.949382e-18
1.900029243848931e-09	0.24404009	0.012627179	-0.9036005	0	0	0.41	4.4319394e-18
1.9100402008388073e-09	0.25388473	0.02714544	-0.9005501	0	0	0.41	4.798768e-18
1.920044139283868e-09	0.25766692	0.04177942	-0.9020252	0	0	0.41	5.1504004e-18
1.9300127234791963e-09	0.24380875	0.049650684	-0.91081804	0	0	0.41	5.1993476e-18
1.9400482752123075e-09	0.23378453	0.03561068	-0.9097717	0	0	0.41	4.9872014e-18
1.9500211070518258e-09	0.22776659	0.05094341	-0.91174626	0	0	0.41	5.8491806e-18
1.96004102012838e-09	0.19807583	0.05692971	-0.91905123	0	0	0.41	5.3842125e-18
1.9700605013728533e-09	0.1864731	0.06589256	-0.91571426	0	0	0.41	4.8799313e-18
1.9800335173947684e-09	0.17964947	0.08019443	-0.9135022	0	0	0.41	4.09076e-18
1.99000296475866e-09	0.15018491	0.110128105	-0.91465	0	0	0.41	4.8484075e-18
2.0000210698005046e-09	0.1416043	0.14695328	-0.90921694	0	0	0.41	4.895534e-18
2.010019196469137e-09	0.13898373	0.15890963	-0.91836554	0	0	0.41	5.6844526e-18
2.020049532568114e-09	0.1314211	0.15493754	-0.9171618	0	0	0.41	4.5309306e-18
2.0300138394457355e-09	0.12112769	0.14788072	-0.9157772	0	0	0.41	3.646302e-18
2.040034838959431e-09	0.12833303	0.13719028	-0.91518426	0	0	0.41	5.251635e-18
2.0500357486082632e-09	0.1289428	0.14349435	-0.906885	0	0	0.41	3.7399747e-18
2.0600166360914446e-09	0.11053648	0.14203605	-0.90385264	0	0	0.41	4.206046e-18
2.070057531818787e-09	0.07504784	0.14503407	-0.89867127	0	0	0.41	3.795368e-18
2.0800517731008155e-09	0.04450239	0.15246142	-0.902105	0	0	0.41	5.3953923e-18
2.09001655051707e-09	0.02463664	0.15284969	-0.9036609	0	0	0.41	4.4903297e-18
2.1000250079335198e-09	0.033077855	0.18303834	-0.90093726	0	0	0.41	4.1780918e-18
2.1100498302229186e-09	0.028013337	0.18661852	-0.9038176	0	0	0.41	5.096586e-18
2.1200228833295772e-09	0.035551623	0.17589009	-0.90828335	0	0	0.41	4.838696e-18
2.1300375515447534e-09	0.03430229	0.19118306	-0.9150604	0	0	0.41	5.06359e-18
2.140051723168003e-09	0.030468885	0.17691925	-0.9210925	0	0	0.41	5.2970525e-18
2.1500346226576715e-09	0.028192276	0.17550005	-0.91884935	0	0	0.41	4.5031832e-18
2.160054255506375e-09	0.021110497	0.17502481	-0.9178784	0	0	0.41	3.7449932e-18
2.1700432274926425e-09	0.0026109712	0.17123608	-0.9216845	0	0	0.41	4.2430345e-18
2.180048208832946e-09	0.0038057782	0.19772463	-0.9217719	0	0	0.41	5.1045874e-18
2.1900266865849212e-09	0.009289296	0.2011405	-0.9216269	0	0	0.41	4.4566585e-18
2.2000203672783667e-09	-0.0042802794	0.20673731	-0.9189146	0	0	0.41	4.7565057e-18
2.2100577877882204e-09	-0.006399505	0.20645364	-0.9134021	0	0	0.41	4.4396678e-18
2.220022521874701e-09	0.002718242	0.20862153	-0.9137997	0	0	0.41	4.4766775e-18
2.2300634444417987e-09	-0.0029492003	0.20398167	-0.91219056	0	0	0.41	5.5335525e-18
2.2400620971364207e-09	-0.019245015	0.2020026	-0.9141501	0	0	0.41	4.728582e-18
2.2500636609000963e-09	-0.027619053	0.2043694	-0.9078061	0	0	0.41	5.6981792e-18
2.2600386215351013e-09	-0.043724705	0.18666384	-0.91021967	0	0	0.41	4.3661955e-18
2.2700652568211376e-09	-0.062735066	0.19550173	-0.905466	0	0	0.41	4.2783092e-18
2.2800422423314863e-09	-0.07438361	0.2000087	-0.90198267	0	0	0.41	4.385314e-18
2.29001746400774e-09	-0.085169695	0.21371163	-0.90013754	0	0	0.41	4.596458e-18
2.3000461759081444e-09	-0.096988656	0.20580803	-0.8912883	0	0	0.41	4.347283e-18
2.310002750751516e-09	-0.12906232	0.19453438	-0.887611	0	0	0.41	5.0483925e-18
2.3200036206605395e-09	-0.14056066	0.19608805	-0.8866299	0	0	0.41	4.828309e-18
2.3300124908787913e-09	-0.13826501	0.17986734	-0.8789909	0	0	0.41	5.670032e-18
2.34001729567582e-09	-0.16439788	0.15627176	-0.8767616	0	0	0.41	4.536226e-18
2.350038338871578e-09	-0.17871977	0.15183893	-0.87410086	0	0	0.41	5.0079607e-18
2.360020574138173e-09	-0.20247257	0.1533316	-0.87382305	0	0	0.41	5.0381085e-18
2.370031884165889e-09	-0.21400495	0.11771737	-0.8758429	0	0	0.41	5.183818e-18
2.3800281330143403e-09	-0.20846535	0.086961135	-0.8747928	0	0	0.41	4.5714203e-18
2.3900291317762292e-09	-0.21683241	0.06033358	-0.8666364	0	0	0.41	4.600269e-18
2.400014464195137e-09	-0.2279462	0.030299852	-0.86611915	0	0	0.41	4.1636856e-18
2.410008277075944e-09	-0.23612925	-0.0071363826	-0.858513	0	0	0.41	4.2147367e-18
2.4200321564552106e-09	-0.23454486	-0.06867531	-0.8437404	0	0	0.41	4.254232e-18
2.4300304090582273e-09	-0.19294201	-0.12303481	-0.8227089	0	0	0.41	4.1820535e-18
2.440064048299595e-09	-0.10620949	-0.19172813	-0.7927407	0	0	0.41	4.347445e-18
2.4500252230550637e-09	0.0005051996	-0.19873142	-0.78040856	0	0	0.41	5.4255744e-18
2.460022145535562e-09	0.1011498	-0.17834559	-0.7783465	0	0	0.41	4.568862e-18
2.4700417750322733e-09	0.2059873	-0.12106094	-0.7709572	0	0	0.41	4.4329556e-18
2.4800377694479387e-09	0.2831813	-0.03783509	-0.762275	0	0	0.41	4.4312996e-18
2.490064229727534e-09	0.28920597	0.09017901	-0.74377245	0	0	0.41	4.728266e-18
2.5000276456283556e-09	0.22205526	0.24167185	-0.72637886	0	0	0.41	5.0663137e-18
2.51006047996585e-09	0.096425	0.32872215	-0.6989141	0	0	0.41	5.469766e-18
2.520042015038041e-09	-0.06858193	0.3118227	-0.68317676	0	0	0.41	4.421857e-18
2.5300463231268545e-09	-0.17988163	0.20464642	-0.674332	0	0	0.41	4.7629188e-18
2.540010355047789e-09	-0.22716798	0.07376399	-0.6764017	0	0	0.41	4.959784e-18
2.5500388656214e-09	-0.19773565	-0.07029153	-0.67223895	0	0	0.41	5.209975e-18
2.560037972275966e-09	-0.14124271	-0.16731435	-0.6699933	0	0	0.41	4.6398715e-18
2.5700434830426215e-09	-0.007608794	-0.2578727	-0.6590704	0	0	0.41	4.747505e-18
2.5800235412622483e-09	0.16812956	-0.26010573	-0.65043145	0	0	0.41	4.6728913e-18
2.5900484743721837e-09	0.31013542	-0.17475057	-0.65259904	0	0	0.41	3.871632e-18
2.6000324462137877e-09	0.3749911	-0.030665137	-0.6559872	0	0	0.41	5.177868e-18
2.610010000336765e-09	0.35435763	0.11882731	-0.6502365	0	0	0.41	4.7922845e-18
2.6200256025264263e-09	0.2526131	0.21822308	-0.6437527	0	0	0.41	4.7654115e-18
2.6300295516024347e-09	0.06429315	0.24993551	-0.62685394	0	0	0.41	5.1404283e-18
2.640035079272541e-09	-0.09507028	0.20291837	-0.61928725	0	0	0.41	4.2856414e-18
2.650058670478483e-09	-0.20098518	0.08288313	-0.6145665	0	0	0.41	4.5878208e-18
2.660033174090286e-09	-0.2594993	-0.059348136	-0.61211526	0	0	0.41	3.794122e-18
2.670009985517942e-09	-0.24756321	-0.24255931	-0.6063334	0	0	0.41	4.1734124e-18
2.6800556195900177e-09	-0.1100416	-0.3916632	-0.5840475	0	0	0.41	5.2114397e-18
2.6900463063259463e-09	0.10728479	-0.40115342	-0.5605819	0	0	0.41	4.9305635e-18
2.700009246036652e-09	0.2762794	-0.27199262	-0.55639654	0	0	0.41	4.5010723e-18
2.710017950536788e-09	0.33689934	-0.08222588	-0.55377203	0	0	0.41	4.921365e-18
2.720061748619198e-09	0.30256268	0.077628575	-0.5477465	0	0	0.41	4.987208e-18
2.7300194959568486e-09	0.1557012	0.21480812	-0.53625286	0	0	0.41	3.9169107e-18
2.740033331271002e-09	-0.05055465	0.24566793	-0.52636844	0	0	0.41	4.5521267e-18
2.750063930802173e-09	-0.22072797	0.18555774	-0.5220533	0	0	0.41	3.566485e-18
2.7600080248742165e-09	-0.37415045	0.056276627	-0.5115972	0	0	0.41	3.663231e-18
2.7700407774674387e-09	-0.40715432	-0.19108318	-0.5078162	0	0	0.41	3.8397794e-18
2.7800583732012113e-09	-0.279328	-0.3452616	-0.5043845	0	0	0.41	4.650976e-18
2.7900256829213007e-09	-0.090187445	-0.36816877	-0.49933276	0	0	0.41	4.4210905e-18
2.800016768796245e-09	0.11473591	-0.30220008	-0.49601948	0	0	0.41	4.69087e-18
2.8100113652013114e-09	0.28414792	-0.12616381	-0.48810828	0	0	0.41	4.792658e-18
2.820056493033171e-09	0.3026298	0.09464279	-0.4881189	0	0	0.41	3.892235e-18
2.8300557842395387e-09	0.19940291	0.26862282	-0.47905165	0	0	0.41	4.351371e-18
2.8400232963803504e-09	-0.012244962	0.34057325	-0.44824833	0	0	0.41	4.0559275e-18
2.8500044354831e-09	-0.22990578	0.2602005	-0.4314679	0	0	0.41	4.570694e-18
2.860047581502016e-09	-0.39012814	0.0963157	-0.4161943	0	0	0.41	3.9236618e-18
2.870043022265819e-09	-0.41628283	-0.12685663	-0.4082567	0	0	0.41	3.6228828e-18
2.8800134659151028e-09	-0.26850453	-0.29958642	-0.39581615	0	0	0.41	2.716985e-18
2.890006437076111e-09	-0.018220732	-0.34538624	-0.37307054	0	0	0.41	4.0697733e-18
2.9000469313248963e-09	0.24395809	-0.21654007	-0.3549311	0	0	0.41	3.8639046e-18
2.9100165278546954e-09	0.37213662	-0.0056872135	-0.3406929	0	0	0.41	4.8043725e-18
2.9200266816471697e-09	0.35488877	0.2043739	-0.3219588	0	0	0.41	3.7529887e-18
2.930022906124765e-09	0.21035989	0.36214232	-0.31673533	0	0	0.41	3.7610463e-18
2.940020505313462e-09	-0.03650021	0.4233293	-0.30805224	0	0	0.41	3.0092446e-18
2.950048311273781e-09	-0.29260972	0.2929671	-0.30094323	0	0	0.41	3.5084667e-18
2.96004809279448e-09	-0.39842406	0.0597441	-0.30307028	0	0	0.41	2.9644524e-18
2.9700046292744994e-09	-0.3553152	-0.16759188	-0.2928688	0	0	0.41	2.5071501e-18
2.9800035916930548e-09	-0.16648258	-0.28991035	-0.2780397	0	0	0.41	3.3750936e-18
2.990030091290351e-09	0.06501431	-0.27523577	-0.2687058	0	0	0.41	3.4325071e-18
3.0000542930399298e-09	0.25527412	-0.14990963	-0.27079645	0	0	0.41	4.4348577e-18
3.0100320362079495e-09	0.3881348	0.07778778	-0.26954156	0	0	0.41	2.7763108e-18
3.020035395222561e-09	0.3313884	0.33720875	-0.25864068	0	0	0.41	4.717544e-18
3.0300570742027498e-09	0.0302031	0.48465094	-0.23272121	0	0	0.41	3.3643872e-18
3.040062884093838e-09	-0.24971515	0.35171628	-0.20209153	0	0	0.41	2.5528988e-18
3.0500383354956814e-09	-0.34631005	0.1276124	-0.19809948	0	0	0.41	2.453366e-18
3.0600387890041584e-09	-0.30250636	-0.08045399	-0.20313385	0	0	0.41	3.0688252e-18
3.0700309863557144e-09	-0.13051517	-0.25779203	-0.18997636	0	0	0.41	3.9719435e-18
3.0800552784543864e-09	0.107842274	-0.32261574	-0.18372223	0	0	0.41	2.3194198e-18
3.090037154557462e-09	0.3736899	-0.21441804	-0.15913738	0	0	0.41	4.1132098e-18
3.1000402558640075e-09	0.51185244	0.045140684	-0.14836153	0	0	0.41	3.357168e-18
3.1100639160112627e-09	0.41932303	0.3310191	-0.12923871	0	0	0.41	3.948675e-18
3.1200601906993397e-09	0.15844339	0.46084565	-0.1053082	0	0	0.41	2.6859866e-18
3.1300609109966223e-09	-0.12936673	0.35673133	-0.09748408	0	0	0.41	3.3115853e-18
3.1400225359127176e-09	-0.27498454	0.12758762	-0.09509929	0	0	0.41	2.5988085e-18
3.150039792434722e-09	-0.30207175	-0.09145077	-0.0920665	0	0	0.41	3.2431537e-18
3.160020681326132e-09	-0.20272973	-0.2878494	-0.0933531	0	0	0.41	3.2882384e-18
3.1700486762509202e-09	0.019009225	-0.39563027	-0.074243665	0	0	0.41	2.7993674e-18
3.1800301045222157e-09	0.29995045	-0.3146022	-0.05382055	0	0	0.41	2.14638e-18
3.190024929126143e-09	0.4082413	-0.026743961	-0.044845168	0	0	0.41	4.131885e-18
3.2000610095434566e-09	0.29805025	0.20840691	-0.036343336	0	0	0.41	3.5088654e-18
3.21002787403589e-09	0.07746528	0.3231298	-0.028983694	0	0	0.41	2.0601415e-18
3.220009717934716e-09	-0.18499605	0.29782343	-0.007453768	0	0	0.41	1.4123068e-18
3.2300468519196027e-09	-0.40011084	0.0894295	0.0102125835	0	0	0.41	2.5339526e-18
3.2400647084166983e-09	-0.39947382	-0.20806724	0.01532736	0	0	0.41	2.1826432e-18
3.2500387702459206e-09	-0.19256744	-0.41019675	0.034956776	0	0	0.41	2.4014232e-18
3.2600291408131937e-09	0.11971319	-0.40917066	0.05625829	0	0	0.41	2.2532803e-18
3.2700253745550578e-09	0.3609287	-0.17361808	0.07228649	0	0	0.41	2.524268e-18
3.2800537105519816e-09	0.36801434	0.07683258	0.08592506	0	0	0.41	2.2235184e-18
3.290051995336863e-09	0.26321965	0.25045723	0.08988034	0	0	0.41	1.7960165e-18
3.300043780186995e-09	0.055395074	0.38534543	0.10538363	0	0	0.41	2.2143129e-18
3.3100578563028e-09	-0.2662228	0.3370659	0.122400604	0	0	0.41	2.220605e-18
3.3200318902013264e-09	-0.44671428	0.04330928	0.14198622	0	0	0.41	2.6226311e-18
3.33002694050753e-09	-0.37407598	-0.24694899	0.1527221	0	0	0.41	1.8278355e-18
3.3400256591772334e-09	-0.14984538	-0.37981072	0.16695692	0	0	0.41	2.6417154e-18
3.350015768667335e-09	0.110302575	-0.32641986	0.18221617	0	0	0.41	1.5642287e-18
3.360023495761735e-09	0.30831644	-0.11085112	0.19137788	0	0	0.41	2.1889068e-18
3.3700400040125647e-09	0.3449014	0.1619139	0.1944768	0	0	0.41	2.0721255e-18
3.380007357370636e-09	0.19092561	0.36808097	0.19192792	0	0	0.41	1.7208817e-18
3.3900188535732824e-09	-0.10872385	0.41913158	0.21123548	0	0	0.41	9.156482e-19
3.4000151545004764e-09	-0.3627927	0.182593	0.22023588	0	0	0.41	2.1032655e-18
3.410055147330558e-09	-0.37109935	-0.14612484	0.21224341	0	0	0.41	6.4442085e-19
3.4200172878440254e-09	-0.16998105	-0.32320026	0.21122633	0	0	0.41	1.681915e-18
3.43001485705798e-09	0.08558644	-0.3266537	0.2304899	0	0	0.41	2.1395202e-18
3.440047635740871e-09	0.32754216	-0.19197744	0.24729931	0	0	0.41	1.8490136e-18
3.4500646139424194e-09	0.40429443	0.0933898	0.2553969	0	0	0.41	1.6315658e-18
3.46002649523242e-09	0.20257132	0.35981846	0.26631767	0	0	0.41	1.312091e-18
3.470001118704819e-09	-0.12779984	0.38276213	0.27625373	0	0	0.41	1.5225257e-18
3.4800061924886288e-09	-0.3279317	0.19277962	0.29102182	0	0	0.41	1.2620073e-18
3.490044966180427e-09	-0.35097578	-0.061333686	0.2922983	0	0	0.41	8.2920167e-19
3.5000459789218425e-09	-0.21866615	-0.28120267	0.29842323	0	0	0.41	1.6172513e-18
3.510063849187257e-09	0.008777941	-0.36161858	0.30826142	0	0	0.41	1.9103604e-18
3.5200121909132775e-09	0.2712521	-0.25498074	0.32745212	0	0	0.41	1.6107382e-18
3.530047540229242e-09	0.37495953	-0.004162343	0.33432847	0	0	0.41	1.7742265e-18
3.5400079770796775e-09	0.27511904	0.24765019	0.34190443	0	0	0.41	1.307597e-18
3.5500355049089547e-09	0.052778628	0.3729937	0.35101905	0	0	0.41	1.916885e-18
3.5600276492740368e-09	-0.2305123	0.32697502	0.3590399	0	0	0.41	1.1987331e-18
3.5700216391022815e-09	-0.38660645	0.04195693	0.36756006	0	0	0.41	1.2519753e-18
3.5800582483071302e-09	-0.26710784	-0.24823956	0.37230507	0	0	0.41	9.795568e-19
3.5900230868531538e-09	-0.024764793	-0.36306196	0.38025305	0	0	0.41	2.2278424e-18
3.600006531757731e-09	0.20731023	-0.30124143	0.3983621	0	0	0.41	1.1435171e-18
3.610031388332184e-09	0.36267495	-0.0708113	0.42118576	0	0	0.41	1.3288702e-18
3.6200461350370986e-09	0.2764531	0.21841797	0.4253865	0	0	0.41	7.1908486e-19
3.6300404088277597e-09	0.015969932	0.34440386	0.43871984	0	0	0.41	1.5115629e-18
3.640056313995581e-09	-0.25974545	0.2969765	0.45120043	0	0	0.41	9.948765e-19
3.650042022963766e-09	-0.404723	0.025471563	0.46834973	0	0	0.41	6.638267e-19
3.6600155573009845e-09	-0.2630279	-0.2654371	0.46708432	0	0	0.41	1.4571462e-18
3.6700351081587334e-09	0.027408069	-0.31347668	0.47357154	0	0	0.41	1.1540519e-18
3.6800105921740444e-09	0.22114298	-0.20612283	0.4871741	0	0	0.41	7.745022e-19
3.6900025983642395e-09	0.3364958	0.0062198453	0.49138713	0	0	0.41	4.9132507e-19
3.700063450212989e-09	0.24177822	0.26415113	0.49820554	0	0	0.41	9.212476e-19
3.7100656895789645e-09	-0.014602188	0.3428778	0.50971985	0	0	0.41	2.1903642e-19
3.720037630122874e-09	-0.24372725	0.22521499	0.52052736	0	0	0.41	3.6663527e-20
3.73003935122598e-09	-0.346437	-0.03835106	0.5330244	0	0	0.41	-1.8043134e-18
3.740013917465225e-09	-0.20770982	-0.28174654	0.53955567	0	0	0.41	3.534776e-19