# t (s)	mx ()	my ()	mz ()	B_extx (T)	B_exty (T)	B_extz (T)	E_total (J)
0	0	0	-1	0	0	0.38	1.0996098e-18
1.0014494087923233e-11	-0.0022672853	0.0065306015	-0.97288597	0	0	0.38	4.171237e-18
2.000512943556358e-11	0.019531967	-0.014455761	-0.9705465	0	0	0.38	4.0997185e-18
3.000594808007825e-11	0.011962309	-0.0021727257	-0.96908116	0	0	0.38	3.880903e-18
4.0031775950556217e-11	0.013995832	-0.00827435	-0.96325374	0	0	0.38	4.4373413e-18
5.0013238121254123e-11	-0.0056734798	0.0026573706	-0.96398616	0	0	0.38	4.6068455e-18
6.001000242654663e-11	0.00040926016	0.022948042	-0.9619907	0	0	0.38	4.438562e-18
7.004527881373236e-11	0.00997503	0.035150517	-0.95730644	0	0	0.38	4.2099457e-18
8.002099268774384e-11	0.033050776	0.037230827	-0.95866704	0	0	0.38	4.7238022e-18
9.003349931487193e-11	0.03747404	0.024382945	-0.95513207	0	0	0.38	5.28242e-18
1.000090394402458e-10	0.04437634	0.02512188	-0.9561661	0	0	0.38	4.214507e-18
1.1005427130397735e-10	0.04213184	0.019594157	-0.95670515	0	0	0.38	4.8702922e-18
1.2000815302911078e-10	0.043346893	0.0114573585	-0.9573089	0	0	0.38	3.591384e-18
1.3001109849932657e-10	0.03454719	-0.002369594	-0.9595051	0	0	0.38	4.3946716e-18
1.4000406974118345e-10	0.026478669	-0.013272187	-0.9564374	0	0	0.38	3.6349852e-18
1.500048250197758e-10	0.044408508	-0.011179907	-0.95522636	0	0	0.38	4.7806205e-18
1.600604545163484e-10	0.02466988	-0.003912381	-0.95178974	0	0	0.38	3.67967e-18
1.7000135922861315e-10	0.032615736	0.0072027054	-0.9532303	0	0	0.38	4.928528e-18
1.800030425323113e-10	0.033148456	0.0008973429	-0.9503619	0	0	0.38	4.716154e-18
1.9006099434151876e-10	0.046280723	-0.014524419	-0.9486044	0	0	0.38	4.574772e-18
2.0000659704152623e-10	0.055589695	-0.02878666	-0.9502698	0	0	0.38	3.707841e-18
2.1001795011944887e-10	0.05332013	-0.054854557	-0.9431607	0	0	0.38	3.85776e-18
2.200335479421079e-10	0.03065836	-0.053444725	-0.94508773	0	0	0.38	4.659066e-18
2.300445658426961e-10	0.010300096	-0.040721267	-0.9469427	0	0	0.38	3.675037e-18
2.4000257980625203e-10	0.009020046	-0.026948381	-0.9488543	0	0	0.38	3.781894e-18
2.500319535188536e-10	0.019147255	-0.026204893	-0.9446685	0	0	0.38	4.6705926e-18
2.600495420953724e-10	0.031047976	-0.014980446	-0.94658923	0	0	0.38	3.680255e-18
2.700268040548225e-10	0.045648992	-0.028282499	-0.9433663	0	0	0.38	3.771012e-18
2.8002898040876187e-10	0.058241747	-0.038417254	-0.9478464	0	0	0.38	4.445377e-18
2.9006136023272467e-10	0.03189524	-0.05083315	-0.9491513	0	0	0.38	4.491814e-18
3.0002958833329226e-10	0.024391912	-0.06645673	-0.94952875	0	0	0.38	4.5500927e-18
3.1001471452615074e-10	0.0022662121	-0.04748519	-0.95082295	0	0	0.38	6.1333064e-18
3.2004987499230154e-10	-0.016480988	-0.03285136	-0.9511004	0	0	0.38	3.967401e-18
3.3006102063689246e-10	-0.012406402	-0.020413024	-0.9527113	0	0	0.38	4.410577e-18
3.400388285856335e-10	-0.001960816	-0.017364547	-0.94900626	0	0	0.38	4.7236616e-18
3.500362101246148e-10	0.0005007612	-0.023691418	-0.9459583	0	0	0.38	5.0516884e-18
3.600423873921757e-10	0.013834099	-0.02556665	-0.9499261	0	0	0.38	4.6510885e-18
3.7001288688168724e-10	0.0120727485	-0.026020575	-0.949994	0	0	0.38	4.8172124e-18
3.800376909330821e-10	-0.003331485	-0.04070104	-0.9511537	0	0	0.38	4.7475816e-18
3.900315516917205e-10	-0.033997085	-0.04590553	-0.950853	0	0	0.38	3.4379386e-18
4.0002194262219314e-10	-0.0466301	-0.03924641	-0.949673	0	0	0.38	4.120869e-18
4.100184848027211e-10	-0.075607605	-0.009761639	-0.9466377	0	0	0.38	4.66406e-18
4.2006129235953865e-10	-0.091267414	0.0018688234	-0.9508877	0	0	0.38	4.2668975e-18
4.300042134026305e-10	-0.07414501	0.0020544915	-0.950218	0	0	0.38	5.1904496e-18
4.4005615521342233e-10	-0.06294746	0.0059045865	-0.9506517	0	0	0.38	4.6375836e-18
4.500583057731868e-10	-0.063580856	0.007495318	-0.9470845	0	0	0.38	4.7259235e-18
4.600411800000158e-10	-0.06899589	0.020261789	-0.94896376	0	0	0.38	5.1261954e-18
4.700327331675024e-10	-0.064647004	0.01074335	-0.947601	0	0	0.38	4.6077244e-18
4.800556727577708e-10	-0.087189116	0.013354166	-0.95165503	0	0	0.38	4.6581336e-18
4.900401503938633e-10	-0.102354296	0.023865052	-0.9477031	0	0	0.38	4.8322642e-18
5.000330672309178e-10	-0.108957425	0.03331103	-0.94508165	0	0	0.38	4.4572933e-18
5.100108720728007e-10	-0.10900295	0.034897726	-0.94301426	0	0	0.38	5.1025178e-18
5.200131200569113e-10	-0.09411469	0.03979094	-0.94525194	0	0	0.38	5.459232e-18
5.300080426705658e-10	-0.07613789	0.045593094	-0.94318825	0	0	0.38	4.6488316e-18
5.400583579713241e-10	-0.060363792	0.060590822	-0.94268966	0	0	0.38	4.8772955e-18
5.500044078949429e-10	-0.034195986	0.054240473	-0.94594306	0	0	0.38	4.4773827e-18
5.600305365472552e-10	-0.040968	0.03995469	-0.94284725	0	0	0.38	4.781622e-18
5.70064528424952e-10	-0.051457528	0.0310865	-0.9430493	0	0	0.38	3.9867947e-18
5.800133510577124e-10	-0.066730425	0.06776112	-0.9406755	0	0	0.38	4.398038e-18
5.900008459998225e-10	-0.069138125	0.060422324	-0.94091505	0	0	0.38	4.8234593e-18
6.000015478628179e-10	-0.08390775	0.07517469	-0.9385782	0	0	0.38	5.1628573e-18
6.100385892189881e-10	-0.07435759	0.08431201	-0.94268817	0	0	0.38	4.822081e-18
6.200403710691561e-10	-0.051131334	0.076119035	-0.9460873	0	0	0.38	3.2736409e-18
6.300232045067463e-10	-0.06288383	0.063185535	-0.9468239	0	0	0.38	5.403961e-18
6.400454809236123e-10	-0.03838977	0.059045643	-0.9477402	0	0	0.38	4.7229196e-18
6.500555932714467e-10	-0.03536396	0.055355538	-0.94887966	0	0	0.38	4.474441e-18
6.600339579380426e-10	-0.016648537	0.055986356	-0.95000243	0	0	0.38	5.1119088e-18
6.700233564195508e-10	-0.015009551	0.048440956	-0.9481431	0	0	0.38	3.991727e-18
6.800316134379652e-10	-0.016536536	0.05348009	-0.94899654	0	0	0.38	4.8023435e-18
6.900582415404227e-10	-0.036218386	0.06774774	-0.9475487	0	0	0.38	4.4741376e-18
7.000521032403262e-10	-0.035522226	0.07598644	-0.9483974	0	0	0.38	4.315421e-18
7.100360573883242e-10	-0.026648851	0.083333544	-0.9469969	0	0	0.38	4.217767e-18
7.200389029227877e-10	-0.019143036	0.09628403	-0.9455028	0	0	0.38	5.1175224e-18
7.300405994655238e-10	-0.011355503	0.10309763	-0.94520664	0	0	0.38	5.3427736e-18
7.40013543493973e-10	0.0032849582	0.07926612	-0.94485754	0	0	0.38	4.502486e-18
7.500237012650045e-10	0.0069247726	0.088071905	-0.9489265	0	0	0.38	3.724125e-18
7.60019839101445e-10	0.0038929493	0.07248154	-0.9469213	0	0	0.38	4.6849417e-18
7.70046920641488e-10	-0.004526031	0.07572106	-0.95096105	0	0	0.38	5.6565754e-18
7.800200825286629e-10	0.0024925664	0.08934478	-0.9526776	0	0	0.38	5.047814e-18
7.9005368849737e-10	0.012055958	0.100283355	-0.95205015	0	0	0.38	4.5613047e-18
8.000299994702417e-10	0.023532262	0.1244312	-0.95234126	0	0	0.38	4.4400417e-18
8.10007971428591e-10	0.026358327	0.13859077	-0.9468251	0	0	0.38	5.5083223e-18
8.200115794726147e-10	0.036638603	0.13177253	-0.94780725	0	0	0.38	4.7257267e-18
8.300143213046458e-10	0.050449032	0.116268136	-0.9502681	0	0	0.38	5.271098e-18
8.400455251814622e-10	0.049174055	0.09098193	-0.9497506	0	0	0.38	4.6867723e-18
8.500273523625103e-10	0.07132879	0.070142254	-0.94342536	0	0	0.38	4.749334e-18
8.600166871672106e-10	0.070253305	0.056837317	-0.9431726	0	0	0.38	3.4394379e-18
8.700565941972287e-10	0.056503344	0.04649646	-0.941266	0	0	0.38	4.62829e-18
8.80017677670198e-10	0.06229316	0.05114171	-0.9415876	0	0	0.38	4.7359047e-18
8.900191536397994e-10	0.06129824	0.048541103	-0.9460791	0	0	0.38	5.1006877e-18
9.000346411237672e-10	0.05970973	0.05007979	-0.94407374	0	0	0.38	5.086274e-18
9.100264187670696e-10	0.073221676	0.047084898	-0.9422694	0	0	0.38	4.1683517e-18
9.200515777854268e-10	0.070392944	0.04318639	-0.94451815	0	0	0.38	3.7159116e-18
9.300556041902034e-10	0.080404244	0.012597575	-0.94645077	0	0	0.38	3.3915021e-18
9.400563680727396e-10	0.07785353	0.006275226	-0.9467561	0	0	0.38	5.0151547e-18
9.500002886163447e-10	0.054007582	-0.0024208494	-0.94983745	0	0	0.38	4.3228178e-18
9.60019503499638e-10	0.043899197	-0.013510218	-0.94888544	0	0	0.38	4.5882935e-18
9.700316319353038e-10	0.024348231	-0.008713872	-0.95289296	0	0	0.38	4.4050254e-18
9.800229733947632e-10	0.031971134	-0.009470964	-0.9533672	0	0	0.38	4.3251074e-18
9.900488900894616e-10	0.026868962	0.0021093795	-0.9516708	0	0	0.38	5.821723e-18
1.0000370996095196e-09	0.030089637	0.02003266	-0.94906294	0	0	0.38	4.483415e-18
1.010020705122765e-09	0.03233653	0.029706268	-0.9471909	0	0	0.38	3.8754413e-18
1.0200070652746373e-09	0.051552955	0.023539163	-0.9463997	0	0	0.38	4.0471305e-18
1.0300011963267251e-09	0.06233929	0.031389214	-0.94810885	0	0	0.38	4.0428084e-18
1.04003324306011e-09	0.057782914	0.016086377	-0.94635826	0	0	0.38	4.664752e-18
1.0500023734830732e-09	0.044492938	0.017412158	-0.9454676	0	0	0.38	3.7368273e-18
1.0600267748748634e-09	0.028966973	0.01662855	-0.9475155	0	0	0.38	4.9265897e-18
1.070031810511521e-09	0.048015848	0.010654309	-0.9502984	0	0	0.38	4.2213678e-18
1.0800647728870734e-09	0.04561599	0.0011831293	-0.9534338	0	0	0.38	4.799979e-18
1.0900155980202912e-09	0.057946943	-0.006809716	-0.9540608	0	0	0.38	3.972803e-18
1.1000131317006137e-09	0.047974203	-0.013165531	-0.95130354	0	0	0.38	4.526583e-18
1.1100311327985292e-09	0.037676483	-0.019409178	-0.9493769	0	0	0.38	5.3986662e-18
1.1200173133598813e-09	0.018828383	-0.0049081044	-0.9472074	0	0	0.38	4.204653e-18
1.1300287996587211e-09	0.010015558	0.007905422	-0.94655484	0	0	0.38	3.916819e-18
1.1400241420062726e-09	0.02669973	0.0056894156	-0.94596714	0	0	0.38	4.570914e-18
1.1500536640952665e-09	0.03255772	0.0034066655	-0.9490155	0	0	0.38	4.446977e-18
1.1600274900099377e-09	0.02540867	-0.005129328	-0.94785964	0	0	0.38	4.8226962e-18
1.1700577484928832e-09	0.044151176	-0.009991876	-0.94927305	0	0	0.38	4.4921896e-18
1.180012612270083e-09	0.04399506	-0.01093147	-0.95003325	0	0	0.38	4.203248e-18
1.190013496009174e-09	0.037867036	-0.01501942	-0.95428866	0	0	0.38	4.0329584e-18
1.2000583539100056e-09	0.023221249	-0.023447562	-0.953492	0	0	0.38	4.289743e-18
1.2100507749907546e-09	0.021512618	-0.016694702	-0.95566034	0	0	0.38	4.706429e-18
1.220039397114125e-09	0.03319045	-0.011853138	-0.9532016	0	0	0.38	4.343103e-18
1.2300160914276606e-09	0.035082433	-0.026650138	-0.95533186	0	0	0.38	4.2563228e-18
1.2400616904198128e-09	0.038289357	-0.026019977	-0.9512249	0	0	0.38	4.222568e-18
1.2500528137706244e-09	0.045594323	-0.028688187	-0.9543549	0	0	0.38	5.0446267e-18
1.2600549519618064e-09	0.06535569	-0.039261688	-0.95251346	0	0	0.38	3.3834959e-18
1.2700327024337408e-09	0.06279016	-0.05321668	-0.95167625	0	0	0.38	5.07952e-18
1.2800403674709975e-09	0.06153785	-0.05749634	-0.9452934	0	0	0.38	4.461786e-18
1.2900328995501168e-09	0.04686309	-0.047220055	-0.9464475	0	0	0.38	4.080269e-18
1.300000445539027e-09	0.044329986	-0.056618594	-0.94296974	0	0	0.38	4.346482e-18
1.3100408206958784e-09	0.03501	-0.053616196	-0.9458331	0	0	0.38	3.797353e-18
1.320061363999536e-09	0.02811961	-0.052146517	-0.9410224	0	0	0.38	4.2028836e-18
1.330035277188479e-09	0.045991283	-0.04200729	-0.93990505	0	0	0.38	4.302615e-18
1.3400165885017625e-09	0.049227748	-0.03709855	-0.94459456	0	0	0.38	5.3676197e-18
1.3500288526627086e-09	0.04439336	-0.045759268	-0.9466449	0	0	0.38	4.3357404e-18
1.360049531367131e-09	0.036627144	-0.06103174	-0.94940454	0	0	0.38	3.4060775e-18
1.3700306484109537e-09	0.030749086	-0.0580088	-0.9474898	0	0	0.38	5.567302e-18
1.3800527049331836e-09	0.0017168886	-0.04650262	-0.9519284	0	0	0.38	4.126182e-18
1.390029751836212e-09	-0.0031447883	-0.04734632	-0.95458204	0	0	0.38	4.0557344e-18
1.400043467652829e-09	-0.010744256	-0.049122445	-0.95273685	0	0	0.38	4.1716244e-18
1.410047807174548e-09	-0.00060980365	-0.04957157	-0.95459586	0	0	0.38	4.2975697e-18
1.420006187121698e-09	0.0025937965	-0.06860009	-0.95246595	0	0	0.38	4.927978e-18
1.4300224283088363e-09	-0.0015039291	-0.068943165	-0.9542196	0	0	0.38	3.459532e-18
1.4400039684584328e-09	-0.0095546665	-0.06700341	-0.95699835	0	0	0.38	5.2771116e-18
1.450038766155441e-09	-0.019751234	-0.053773984	-0.9574813	0	0	0.38	4.049766e-18
1.4600355623129452e-09	-0.02708839	-0.052035533	-0.9582425	0	0	0.38	4.457815e-18
1.470015805124689e-09	-0.022925608	-0.0521265	-0.957027	0	0	0.38	4.692467e-18
1.4800168899659415e-09	-0.017082231	-0.057813242	-0.9565638	0	0	0.38	5.5901466e-18
1.490037739503114e-09	-0.005952107	-0.074772306	-0.9517022	0	0	0.38	5.888354e-18
1.5000001122877471e-09	-0.00208113	-0.084988445	-0.94897145	0	0	0.38	5.0790044e-18
1.510049666075308e-09	-0.021716997	-0.08541148	-0.9495017	0	0	0.38	3.6549224e-18
1.5200064189189841e-09	-0.031651516	-0.080990955	-0.947992	0	0	0.38	4.6799377e-18
1.5300191206187998e-09	-0.045867685	-0.073995836	-0.9507174	0	0	0.38	3.847408e-18
1.5400322045760762e-09	-0.057253014	-0.0719709	-0.9496817	0	0	0.38	4.0433304e-18
1.5500140469231366e-09	-0.053122647	-0.07014119	-0.94830215	0	0	0.38	4.345481e-18
1.560054770821075e-09	-0.051084608	-0.06350223	-0.9471015	0	0	0.38	4.9797886e-18
1.5700610430887465e-09	-0.029963491	-0.08819354	-0.9499271	0	0	0.38	5.0736843e-18
1.5800452849480122e-09	-0.038633835	-0.10126689	-0.9469489	0	0	0.38	4.729315e-18
1.5900447139730427e-09	-0.050789595	-0.087093994	-0.9493193	0	0	0.38	5.0529994e-18
1.60001902872728e-09	-0.046858966	-0.07395009	-0.94829047	0	0	0.38	3.475731e-18
1.610051498902452e-09	-0.04743219	-0.063273184	-0.9473085	0	0	0.38	5.0705952e-18
1.6200280080677792e-09	-0.0449205	-0.07094343	-0.94360065	0	0	0.38	4.5036332e-18
1.6300516909649641e-09	-0.046763018	-0.059477884	-0.9455045	0	0	0.38	4.5679804e-18
1.640049919357884e-09	-0.056020986	-0.05087847	-0.9488549	0	0	0.38	5.390025e-18
1.6500018882177674e-09	-0.060529504	-0.044604514	-0.9467646	0	0	0.38	4.7065766e-18
1.6600463779468148e-09	-0.054569546	-0.035568368	-0.9462107	0	0	0.38	4.3545455e-18
1.6700372990857606e-09	-0.06515876	-0.031694777	-0.9464627	0	0	0.38	4.173753e-18
1.6800409400895917e-09	-0.057607904	-0.018009374	-0.947155	0	0	0.38	4.5802215e-18
1.6900521699364702e-09	-0.051882256	-0.049971074	-0.94721663	0	0	0.38	4.6155743e-18
1.7000436262466009e-09	-0.06241122	-0.039868407	-0.94696414	0	0	0.38	4.405053e-18
1.7100095867562044e-09	-0.062385447	-0.018448729	-0.9463425	0	0	0.38	3.5819443e-18
1.7200007467000615e-09	-0.056691978	-0.009812346	-0.9494719	0	0	0.38	4.4230216e-18
1.730006698813147e-09	-0.07370385	-0.0005593323	-0.94827354	0	0	0.38	4.1794814e-18
1.740037012277239e-09	-0.06452827	0.012880549	-0.9474429	0	0	0.38	4.509551e-18
1.7500508297197623e-09	-0.057920203	0.022035073	-0.9440004	0	0	0.38	4.6567626e-18
1.7600513670136216e-09	-0.05285996	0.020821309	-0.94425786	0	0	0.38	4.30258e-18
1.7700392035808508e-09	-0.057461143	0.036679417	-0.9460965	0	0	0.38	3.905225e-18
1.7800112943219204e-09	-0.040981106	0.034561105	-0.9459173	0	0	0.38	3.9929497e-18
1.7900217072609996e-09	-0.045972027	0.028390639	-0.94829106	0	0	0.38	3.9082998e-18
1.8000187800158243e-09	-0.031479456	0.03527856	-0.9467325	0	0	0.38	4.863874e-18
1.810022155876069e-09	-0.022730159	0.049686562	-0.950372	0	0	0.38	3.928e-18
1.820061762372613e-09	-0.004745618	0.04871626	-0.9502932	0	0	0.38	3.882117e-18
1.8300018896618858e-09	0.00395917	0.03912272	-0.9533229	0	0	0.38	4.924638e-18
1.8400160903664455e-09	0.008091166	0.05980824	-0.95032626	0	0	0.38	4.602506e-18
1.8500056562958629e-09	0.0069997064	0.07524	-0.94674546	0	0	0.38	5.1687e-18
1.8600629344980069e-09	0.020882294	0.08032691	-0.9456582	0	0	0.38	5.2299342e-18
1.8700509214121062e-09	0.02769084	0.055614393	-0.951	0	0	0.38	5.0113534e-18
1.8800133594781744e-09	0.0317858	0.038491458	-0.95429295	0	0	0.38	4.1468723e-18
1.8900028648222775e-09	0.036442447	0.051830303	-0.953433	0	0	0.38	5.865089e-18
1.9000423776864158e-09	0.036998365	0.06554102	-0.9527818	0	0	0.38	4.1993722e-18
1.9100452825793767e-09	0.055553596	0.066921346	-0.954707	0	0	0.38	4.663981e-18
1.9200375573218533e-09	0.062386807	0.04761815	-0.95603305	0	0	0.38	4.971703e-18
1.930063250244627e-09	0.07627193	0.049222123	-0.95126	0	0	0.38	5.033415e-18
1.940021815171772e-09	0.08395235	0.046395447	-0.95085204	0	0	0.38	4.6715546e-18
1.9500055598425776e-09	0.08317471	0.0494742	-0.9526304	0	0	0.38	4.230615e-18
1.960016024332368e-09	0.08020019	0.043375354	-0.95285034	0	0	0.38	5.5894343e-18
1.9700184018578217e-09	0.07335208	0.0440156	-0.95533895	0	0	0.38	6.132635e-18
1.98002049625388e-09	0.05754552	0.03554178	-0.9536536	0	0	0.38	4.8064607e-18
1.9900077536377467e-09	0.06340245	0.037099384	-0.957688	0	0	0.38	5.40049e-18
2.0000163044526776e-09	0.064037345	0.043934897	-0.95390123	0	0	0.38	5.013774e-18
2.0100428653401843e-09	0.07500645	0.05871946	-0.9526132	0	0	0.38	3.9669717e-18
2.0200633382961475e-09	0.08637245	0.057608537	-0.9543296	0	0	0.38	4.3312132e-18
2.030049553958936e-09	0.08928353	0.04198092	-0.95010483	0	0	0.38	3.9113583e-18
2.040049664365358e-09	0.09151594	0.038019698	-0.95121545	0	0	0.38	3.9069936e-18
2.0500114569656107e-09	0.09855843	0.040523563	-0.9476086	0	0	0.38	5.1398447e-18
2.0600290509437002e-09	0.08743178	0.02619164	-0.9461272	0	0	0.38	4.117187e-18
2.0700013552699996e-09	0.08891456	0.019567069	-0.94646764	0	0	0.38	4.737094e-18
2.0800316457824604e-09	0.10073971	0.016974919	-0.94828963	0	0	0.38	4.7478687e-18
2.0900230715997024e-09	0.099618524	-0.021704173	-0.94779944	0	0	0.38	4.946878e-18
2.1000225498730744e-09	0.08667871	-0.013506967	-0.9516512	0	0	0.38	4.371144e-18
2.1100165340442913e-09	0.09372491	-0.0043591014	-0.95358646	0	0	0.38	4.5802562e-18
2.1200522649370714e-09	0.087278776	-0.012736919	-0.9556609	0	0	0.38	5.080413e-18
2.1300563088158855e-09	0.08142744	-0.021312667	-0.95564014	0	0	0.38	4.2358095e-18
2.140027786913236e-09	0.0638177	-0.022887481	-0.9590654	0	0	0.38	3.8296274e-18
2.150017406658042e-09	0.05785132	-0.026851887	-0.95371747	0	0	0.38	4.767063e-18
2.1600372175032744e-09	0.06962891	-0.011965468	-0.95277035	0	0	0.38	4.091515e-18
2.1700451175316386e-09	0.066614285	-0.020512952	-0.953774	0	0	0.38	4.2578047e-18
2.1800083266082448e-09	0.036604676	-0.034057267	-0.9587609	0	0	0.38	5.702085e-18
2.190061245147323e-09	0.040533517	-0.03699469	-0.95887494	0	0	0.38	4.879679e-18
2.200054363516125e-09	0.039392397	-0.052630376	-0.9567699	0	0	0.38	4.6341e-18
2.2100085004745012e-09	0.02346538	-0.07464679	-0.9529102	0	0	0.38	4.962924e-18
2.220041245092624e-09	0.007935295	-0.082897805	-0.9524442	0	0	0.38	3.9467264e-18
2.2300014747280516e-09	0.0012751366	-0.0716897	-0.95177466	0	0	0.38	4.3033757e-18
2.2400260099794797e-09	-0.0065530194	-0.067469135	-0.9552082	0	0	0.38	4.5043616e-18
2.250002699690751e-09	-0.00095634745	-0.064935446	-0.9524204	0	0	0.38	4.646509e-18
2.2600383377632706e-09	0.006432814	-0.07377595	-0.9515737	0	0	0.38	5.2484825e-18
2.2700098733569526e-09	0.009242062	-0.0810848	-0.9439882	0	0	0.38	4.6884663e-18
2.2800547784810313e-09	0.02006611	-0.079410166	-0.9457646	0	0	0.38	4.1915955e-18
2.290057052257519e-09	0.012321851	-0.09625154	-0.94514763	0	0	0.38	4.3131406e-18
2.3000521767034114e-09	0.029553397	-0.09293999	-0.94260305	0	0	0.38	2.9782942e-18
2.3100072582944733e-09	0.03241644	-0.0883377	-0.9425737	0	0	0.38	5.2262905e-18
2.3200017024157884e-09	0.021738365	-0.09052028	-0.94305766	0	0	0.38	4.4795383e-18
2.3300139490041965e-09	0.0010465073	-0.08340328	-0.9403816	0	0	0.38	4.496801e-18
2.340003307621863e-09	-0.0010231234	-0.07322816	-0.94111484	0	0	0.38	5.229686e-18
2.3500059312593532e-09	-0.004908683	-0.09300157	-0.9379683	0	0	0.38	4.2010047e-18
2.3600389643213553e-09	-0.024890425	-0.09472198	-0.939769	0	0	0.38	4.6582006e-18
2.370035937198403e-09	-0.026467144	-0.10568874	-0.93894696	0	0	0.38	4.6344105e-18
2.3800397772448874e-09	-0.022781959	-0.108123705	-0.9424444	0	0	0.38	4.431511e-18
2.3900486924406355e-09	-0.03758783	-0.115847394	-0.94029486	0	0	0.38	4.757919e-18
2.400057646949615e-09	-0.043176614	-0.11271142	-0.9403977	0	0	0.38	4.2598714e-18
2.4100342965282894e-09	-0.056854587	-0.12423277	-0.93583906	0	0	0.38	4.9286986e-18
2.4200525704954624e-09	-0.05630858	-0.1236206	-0.94154894	0	0	0.38	3.844083e-18
2.4300408726664626e-09	-0.0739071	-0.10697441	-0.9446551	0	0	0.38	3.7928564e-18
2.4400608950803005e-09	-0.08378332	-0.103386395	-0.9412175	0	0	0.38	5.3749216e-18
2.4500630483170173e-09	-0.083833255	-0.11008314	-0.93604493	0	0	0.38	4.1754952e-18
2.4600130534169663e-09	-0.07579486	-0.10460876	-0.9385633	0	0	0.38	4.005381e-18
2.4700393807577686e-09	-0.07606258	-0.093754776	-0.9395543	0	0	0.38	3.2474302e-18
2.480046581371391e-09	-0.078429036	-0.11140475	-0.9337542	0	0	0.38	4.7123197e-18
2.4900634846953578e-09	-0.09523767	-0.12819709	-0.9349904	0	0	0.38	4.369151e-18
2.5000572847009605e-09	-0.10749532	-0.1236881	-0.93374515	0	0	0.38	4.576507e-18
2.510021586199663e-09	-0.12011672	-0.10845908	-0.929855	0	0	0.38	4.3692755e-18
2.5200324363173044e-09	-0.15893294	-0.10601026	-0.9213654	0	0	0.38	3.485536e-18
2.5300145513418725e-09	-0.14833333	-0.08493131	-0.9257361	0	0	0.38	4.9302024e-18
2.5400426431405658e-09	-0.1663232	-0.08294235	-0.9160205	0	0	0.38	5.0538854e-18
2.5500268524944437e-09	-0.15326236	-0.06456217	-0.9154122	0	0	0.38	3.702471e-18
2.5600512951375375e-09	-0.14327188	-0.077556774	-0.9215896	0	0	0.38	3.730595e-18
2.570051792184356e-09	-0.16950148	-0.061674446	-0.923168	0	0	0.38	4.168928e-18
2.580002986574539e-09	-0.16238298	-0.050179657	-0.9255772	0	0	0.38	5.419643e-18
2.590058145598221e-09	-0.16876689	-0.044864632	-0.9274155	0	0	0.38	3.858694e-18
2.600028035956917e-09	-0.18175727	-0.033779122	-0.93078804	0	0	0.38	4.4034228e-18
2.6100225026737782e-09	-0.17220496	-0.021569757	-0.93584377	0	0	0.38	3.5151235e-18
2.620043997156591e-09	-0.18166602	0.002071429	-0.9337192	0	0	0.38	4.9839497e-18
2.6300071038104555e-09	-0.18395092	0.0064152237	-0.9310751	0	0	0.38	4.9390355e-18
2.6400635666979377e-09	-0.17235388	0.014681056	-0.9313852	0	0	0.38	4.4881877e-18
2.65003764352711e-09	-0.17712252	0.016431328	-0.9303982	0	0	0.38	5.09849e-18
2.660026501562778e-09	-0.18914816	0.03623164	-0.9243879	0	0	0.38	3.954128e-18
2.670062294080009e-09	-0.18589896	0.044671457	-0.9250948	0	0	0.38	4.9262795e-18
2.6800487613390573e-09	-0.1687579	0.022733295	-0.9320721	0	0	0.38	4.4439278e-18
2.6900081997243658e-09	-0.19020434	0.022631912	-0.93058604	0	0	0.38	4.1160234e-18
2.7000114837856757e-09	-0.169181	0.034139566	-0.9300797	0	0	0.38	5.560763e-18
2.7100471533913554e-09	-0.17381354	0.04567467	-0.92565244	0	0	0.38	5.856138e-18
2.7200482161816915e-09	-0.18263613	0.038022883	-0.9253922	0	0	0.38	6.1700754e-18
2.7300601428636283e-09	-0.18697831	0.03922925	-0.9228878	0	0	0.38	5.6855192e-18
2.740017041363632e-09	-0.18080354	0.035351627	-0.9258481	0	0	0.38	3.9885115e-18
2.7500059430164793e-09	-0.17799625	0.026781142	-0.92452884	0	0	0.38	4.2102947e-18
2.7600273343748457e-09	-0.17018053	0.022788184	-0.9310232	0	0	0.38	4.0182954e-18
2.7700459542234543e-09	-0.15593353	0.023307854	-0.9308999	0	0	0.38	5.3975086e-18
2.7800340840342284e-09	-0.148397	0.030921048	-0.93357736	0	0	0.38	3.1389612e-18
2.7900085195615703e-09	-0.15185358	0.032889564	-0.9382094	0	0	0.38	3.3709541e-18
2.8000182262485086e-09	-0.15066136	0.037498802	-0.9392205	0	0	0.38	3.952053e-18
2.8100607064314876e-09	-0.1597157	0.061322458	-0.93458885	0	0	0.38	5.731202e-18
2.8200386914488654e-09	-0.15414667	0.07463978	-0.93317145	0	0	0.38	3.640796e-18
2.830061416820393e-09	-0.14782645	0.08878234	-0.9282839	0	0	0.38	4.6890127e-18
2.840012621201835e-09	-0.13653964	0.10957655	-0.92566985	0	0	0.38	4.5955917e-18
2.8500056905256003e-09	-0.12038965	0.119874015	-0.9206774	0	0	0.38	5.1813332e-18
2.8600272515930564e-09	-0.1018647	0.10959276	-0.9231146	0	0	0.38	4.5654497e-18
2.8700166694457987e-09	-0.12298116	0.116127335	-0.9208036	0	0	0.38	4.3426887e-18
2.880051156220327e-09	-0.121192075	0.11720077	-0.9215171	0	0	0.38	5.6552548e-18
2.8900480896212856e-09	-0.10813917	0.12152197	-0.9288917	0	0	0.38	4.4206563e-18
2.900036477727906e-09	-0.09506527	0.13060914	-0.93391484	0	0	0.38	3.3767047e-18
2.9100304000384815e-09	-0.090956405	0.14763524	-0.93051445	0	0	0.38	4.9297533e-18
2.9200567300996505e-09	-0.084527716	0.14921415	-0.9334938	0	0	0.38	4.915083e-18
2.9300170867575718e-09	-0.076316625	0.14760222	-0.9373877	0	0	0.38	4.447295e-18
2.9400213462316095e-09	-0.06615983	0.15301718	-0.9358676	0	0	0.38	4.23197e-18
2.950007823820155e-09	-0.057547968	0.15316147	-0.9374654	0	0	0.38	4.322788e-18
2.9600037776657976e-09	-0.06677624	0.15865678	-0.93373704	0	0	0.38	4.2986293e-18
2.9700331480745135e-09	-0.05662513	0.1652789	-0.9341244	0	0	0.38	3.9193335e-18
2.9800349231811283e-09	-0.048208434	0.1867059	-0.9330691	0	0	0.38	4.1503113e-18
2.9900116019835007e-09	-0.046040684	0.19556125	-0.92536587	0	0	0.38	4.1353377e-18
3.0000017522705274e-09	-0.03962571	0.18330951	-0.9296827	0	0	0.38	4.2818723e-18
3.010028711233431e-09	-0.032409836	0.18632556	-0.93146384	0	0	0.38	4.319687e-18
3.0200220710514967e-09	-0.014957005	0.19888689	-0.93242633	0	0	0.38	3.6709796e-18
3.0300182867882135e-09	-0.010010219	0.18564965	-0.932088	0	0	0.38	5.1127335e-18
3.0400401052468317e-09	-0.020073755	0.19377951	-0.9251622	0	0	0.38	4.514039e-18
3.0500352007515565e-09	-0.02033654	0.1996398	-0.92685574	0	0	0.38	3.7294116e-18
3.0600342523826912e-09	-0.018362183	0.20687011	-0.9243732	0	0	0.38	5.3485804e-18
3.070026703070309e-09	-0.013334475	0.20486316	-0.92435837	0	0	0.38	4.6107353e-18
3.0800497617142393e-09	-0.02725162	0.20818566	-0.9248379	0	0	0.38	3.8718517e-18
3.090042244074738e-09	-0.01722047	0.23236796	-0.9214727	0	0	0.38	4.549016e-18
3.10006051615392e-09	-0.009188619	0.22853349	-0.9228073	0	0	0.38	4.4464933e-18
3.11006561257401e-09	0.004916529	0.24321431	-0.91806704	0	0	0.38	4.5790076e-18
3.1200115919720004e-09	0.021846818	0.24320436	-0.9170558	0	0	0.38	4.1513205e-18
3.1300378467323403e-09	0.036331765	0.21446013	-0.9232283	0	0	0.38	4.312124e-18
3.140029187049255e-09	0.046695694	0.19752292	-0.9253318	0	0	0.38	3.7732625e-18
3.1500236756809762e-09	0.05192361	0.18754931	-0.92357934	0	0	0.38	4.891928e-18
3.160061494252819e-09	0.0634226	0.16429108	-0.92318964	0	0	0.38	4.636702e-18
3.1700568601060154e-09	0.054063197	0.15239106	-0.92341924	0	0	0.38	4.1363907e-18
3.1800641104792715e-09	0.036723338	0.14823085	-0.9246512	0	0	0.38	4.1269943e-18
3.1900334489431865e-09	0.041871697	0.16243637	-0.9230557	0	0	0.38	5.1184303e-18
3.2000544356875764e-09	0.057488248	0.15731877	-0.92156744	0	0	0.38	4.3729048e-18
3.2100529636445694e-09	0.06527043	0.14885789	-0.922485	0	0	0.38	4.2750088e-18
3.220037446586397e-09	0.08642599	0.13121624	-0.9226995	0	0	0.38	5.052557e-18
3.230054441165065e-09	0.0806089	0.13517348	-0.9300713	0	0	0.38	4.3794792e-18
3.240043174141438e-09	0.08406224	0.12047344	-0.9344367	0	0	0.38	3.7986073e-18
3.2500027991619265e-09	0.08027521	0.094787024	-0.9359024	0	0	0.38	4.141015e-18
3.2600487296047773e-09	0.06709446	0.10714233	-0.92965066	0	0	0.38	4.5606405e-18
3.2700215518882808e-09	0.077906474	0.12383545	-0.9354128	0	0	0.38	4.634985e-18
3.280049675798741e-09	0.07641257	0.13038084	-0.9302729	0	0	0.38	5.770737e-18
3.290000029722336e-09	0.10909407	0.13339615	-0.92499876	0	0	0.38	4.1821913e-18
3.3000312936560634e-09	0.13387099	0.13103957	-0.91942304	0	0	0.38	4.839589e-18
3.3100248589658586e-09	0.14908037	0.12080015	-0.9146513	0	0	0.38	4.614108e-18
3.3200405705043133e-09	0.14898564	0.11227496	-0.9125917	0	0	0.38	4.4786363e-18
3.3300197756492338e-09	0.15541255	0.097277656	-0.91603404	0	0	0.38	4.4108376e-18
3.3400480507257518e-09	0.15432338	0.10526379	-0.91228956	0	0	0.38	4.8510743e-18
3.3500421559882194e-09	0.14825156	0.097952895	-0.9165516	0	0	0.38	4.691718e-18
3.360025723966251e-09	0.14386423	0.12190647	-0.91492313	0	0	0.38	4.408102e-18
3.3700007688729628e-09	0.16405803	0.12511732	-0.9194396	0	0	0.38	4.3651206e-18
3.3800339389919313e-09	0.1774446	0.12467539	-0.91945606	0	0	0.38	4.6822013e-18
3.390047138502194e-09	0.1733109	0.1026978	-0.92340696	0	0	0.38	5.1329266e-18
3.4000436834185282e-09	0.15723872	0.10289436	-0.9273212	0	0	0.38	4.832769e-18
3.410006459494467e-09	0.15913716	0.09716182	-0.928785	0	0	0.38	4.7090185e-18
3.4200345437791365e-09	0.17110755	0.09329106	-0.9262942	0	0	0.38	4.914822e-18
3.430024536791225e-09	0.17394823	0.08665665	-0.92643714	0	0	0.38	4.0774474e-18
3.44002577675343e-09	0.179123	0.08201305	-0.92664844	0	0	0.38	4.1905102e-18
3.4500497272359912e-09	0.19105256	0.064609796	-0.9203947	0	0	0.38	5.1035125e-18
3.4600095735617407e-09	0.17842004	0.053432595	-0.9197817	0	0	0.38	3.7066224e-18
3.4700068370509155e-09	0.18852809	0.06521136	-0.91709745	0	0	0.38	5.3591448e-18
3.4800162608358383e-09	0.19558555	0.06694474	-0.9118705	0	0	0.38	4.332025e-18
3.4900219599053655e-09	0.21270409	0.079483904	-0.9090836	0	0	0.38	4.8467734e-18
3.5000609901060674e-09	0.21397473	0.06263062	-0.9080387	0	0	0.38	3.906557e-18
3.510065166008528e-09	0.2210764	0.066155694	-0.90696967	0	0	0.38	4.967858e-18
3.520045516904141e-09	0.22712655	0.057197675	-0.90681225	0	0	0.38	4.18306e-18
3.5300388245550095e-09	0.2095585	0.044879988	-0.90982383	0	0	0.38	5.060107e-18
3.5400223377835493e-09	0.1986661	0.03874901	-0.9052	0	0	0.38	4.578289e-18
3.550038019672887e-09	0.1709994	0.048306536	-0.91061664	0	0	0.38	4.7615837e-18
3.560049071112884e-09	0.18506052	0.0471703	-0.9096895	0	0	0.38	4.60138e-18
3.570035449128122e-09	0.19556817	0.059539303	-0.91060334	0	0	0.38	4.765118e-18
3.580053119625739e-09	0.21477355	0.05841354	-0.912313	0	0	0.38	4.5503896e-18
3.590061443640802e-09	0.2463026	0.034578633	-0.9028685	0	0	0.38	4.0944485e-18
3.6000133962689838e-09	0.2748764	0.031099223	-0.89502496	0	0	0.38	3.949838e-18
3.610044760199048e-09	0.2708337	0.03391684	-0.88799417	0	0	0.38	4.4031436e-18
3.620051115480102e-09	0.24611877	0.018906832	-0.89314175	0	0	0.38	4.0913193e-18
3.630046909063154e-09	0.24082278	0.016743837	-0.8889234	0	0	0.38	3.6550526e-18
3.6400158150369916e-09	0.22817057	0.02213224	-0.89223975	0	0	0.38	5.1012687e-18
3.650047607576091e-09	0.2118996	0.045999225	-0.89994085	0	0	0.38	4.0477736e-18
3.660053854760699e-09	0.23089223	0.06956737	-0.8950633	0	0	0.38	4.1187023e-18
3.6700326352425226e-09	0.22945726	0.08490981	-0.894702	0	0	0.38	4.2830295e-18
3.6800117955811645e-09	0.22891845	0.09236081	-0.8975026	0	0	0.38	4.361233e-18
3.6900299724750803e-09	0.23068136	0.088948615	-0.902914	0	0	0.38	3.5582688e-18
3.700034838453595e-09	0.22891171	0.09869351	-0.904478	0	0	0.38	4.267524e-18
3.7100260794991737e-09	0.23245032	0.09725008	-0.9029328	0	0	0.38	3.6516686e-18
3.7200007227677268e-09	0.23123725	0.07602831	-0.8998583	0	0	0.38	4.976947e-18