# t (s)	mx ()	my ()	mz ()	B_extx (T)	B_exty (T)	B_extz (T)	E_total (J)
0	0	0	-1	0	0	0.39	1.17474e-18
1.0019189756274976e-11	0.0033609245	0.009302013	-0.9750384	0	0	0.39	4.416429e-18
2.0032111568987427e-11	0.015244012	0.019325895	-0.9692835	0	0	0.39	5.0045076e-18
3.0029787187238366e-11	0.019861266	0.037648745	-0.9684053	0	0	0.39	4.800345e-18
4.0043841677581915e-11	0.017815575	0.039036177	-0.967455	0	0	0.39	4.5772047e-18
5.005267250405387e-11	0.020095142	0.045725558	-0.9645109	0	0	0.39	4.7958364e-18
6.00637539773883e-11	0.020446641	0.043186765	-0.9619677	0	0	0.39	4.514053e-18
7.004293335664868e-11	0.00014628096	0.025353152	-0.96135515	0	0	0.39	4.357025e-18
8.002613545478955e-11	-0.0024307584	0.022717727	-0.95953566	0	0	0.39	3.94806e-18
9.000660760373895e-11	0.0010915842	0.031282306	-0.9610752	0	0	0.39	4.2110644e-18
1.0001743314097539e-10	0.010394632	0.03174667	-0.9617896	0	0	0.39	5.1422216e-18
1.1004083517179696e-10	0.009940448	0.03135356	-0.958423	0	0	0.39	4.506611e-18
1.2005084547277966e-10	0.024898116	0.02331767	-0.9606994	0	0	0.39	3.4774946e-18
1.3001359001939146e-10	0.017129077	0.020687718	-0.9602224	0	0	0.39	4.5463724e-18
1.4005749866517814e-10	0.02327534	0.022618378	-0.95956165	0	0	0.39	5.0788927e-18
1.5002481114804877e-10	0.02094172	0.018108355	-0.9562046	0	0	0.39	4.279657e-18
1.6004835840117968e-10	-0.00076365354	0.019530855	-0.95478845	0	0	0.39	4.0803992e-18
1.7002491924064496e-10	-0.0055962503	0.024347644	-0.9572617	0	0	0.39	5.0815674e-18
1.800213780868447e-10	0.0024215835	0.028870171	-0.9599716	0	0	0.39	5.011093e-18
1.9004779637627642e-10	0.021303717	0.022550186	-0.9591704	0	0	0.39	4.3263403e-18
2.0000694667971269e-10	0.03589413	0.012705776	-0.96145374	0	0	0.39	4.12111e-18
2.100515226085313e-10	0.02869023	0.008955749	-0.9612818	0	0	0.39	5.7914455e-18
2.2001547656489659e-10	0.02231598	0.013717698	-0.9612897	0	0	0.39	3.6579155e-18
2.3000040490647436e-10	0.024080882	0.008139565	-0.95981574	0	0	0.39	5.158159e-18
2.400015971019696e-10	0.025704755	-0.0031377047	-0.95722145	0	0	0.39	4.3416915e-18
2.500067106835706e-10	0.031141363	-0.0059089637	-0.95301753	0	0	0.39	4.975039e-18
2.6004626212228177e-10	0.034794588	-0.013290489	-0.95675117	0	0	0.39	3.3601737e-18
2.7005643492517907e-10	0.046418514	-0.021100061	-0.94965243	0	0	0.39	4.0447217e-18
2.8004590246399994e-10	0.06159461	-0.015209908	-0.95008093	0	0	0.39	5.6819247e-18
2.9003402423463105e-10	0.061464343	-0.0124809705	-0.95050097	0	0	0.39	4.875294e-18
3.0003609143289746e-10	0.049720652	-0.03400785	-0.9544245	0	0	0.39	4.92548e-18
3.1006366290162797e-10	0.057603747	-0.035831302	-0.9568144	0	0	0.39	4.252849e-18
3.200070925586086e-10	0.054984502	-0.047494967	-0.9516892	0	0	0.39	4.57446e-18
3.3005267889462625e-10	0.051921807	-0.05728116	-0.95162964	0	0	0.39	4.7690664e-18
3.400499920498245e-10	0.04426744	-0.06451367	-0.9509342	0	0	0.39	5.0374948e-18
3.5002367210237063e-10	0.045456707	-0.052456364	-0.95197374	0	0	0.39	5.264791e-18
3.6001558634248166e-10	0.040749535	-0.05660009	-0.95509374	0	0	0.39	4.8162566e-18
3.7005311630695917e-10	0.028325645	-0.0718994	-0.95554924	0	0	0.39	4.407337e-18
3.8004269387822436e-10	0.021251779	-0.07134884	-0.95525867	0	0	0.39	5.154921e-18
3.9006283515560933e-10	0.010960966	-0.09970315	-0.9485771	0	0	0.39	4.8156023e-18
4.0000480934485076e-10	0.0090426095	-0.09956173	-0.94502145	0	0	0.39	4.61474e-18
4.10030609170693e-10	-0.0020131816	-0.10886434	-0.94408005	0	0	0.39	4.5985257e-18
4.2005618290374996e-10	-0.0072761015	-0.102971666	-0.94643825	0	0	0.39	4.82666e-18
4.3003143791741e-10	-0.025716253	-0.108607136	-0.9426872	0	0	0.39	3.5702476e-18
4.400130835036084e-10	-0.014284805	-0.09410085	-0.9446608	0	0	0.39	4.5239897e-18
4.500124327641049e-10	-0.015456792	-0.09820685	-0.9404849	0	0	0.39	5.1667968e-18
4.600166176524581e-10	-0.024564277	-0.09979431	-0.9459593	0	0	0.39	4.2208665e-18
4.70001550485092e-10	-0.03265595	-0.11296245	-0.94486076	0	0	0.39	4.488413e-18
4.800039699776825e-10	-0.043067414	-0.099652275	-0.9405576	0	0	0.39	5.0260557e-18
4.900054663669958e-10	-0.043971535	-0.094036594	-0.9433173	0	0	0.39	5.062788e-18
5.000651663784779e-10	-0.05772495	-0.09245826	-0.9416253	0	0	0.39	5.151842e-18
5.100066350810636e-10	-0.051502354	-0.08827113	-0.94080836	0	0	0.39	4.670882e-18
5.200009269392861e-10	-0.03689559	-0.085523315	-0.93528664	0	0	0.39	5.538234e-18
5.300371084132161e-10	-0.032128178	-0.10411767	-0.93920934	0	0	0.39	3.7993018e-18
5.400168028892772e-10	-0.026580177	-0.09915197	-0.94043547	0	0	0.39	4.729307e-18
5.500645111917793e-10	-0.029192306	-0.09730533	-0.94196135	0	0	0.39	5.1815313e-18
5.600329964964203e-10	-0.026461199	-0.110839695	-0.9406992	0	0	0.39	4.426038e-18
5.700064216647746e-10	-0.030724784	-0.11713676	-0.9372286	0	0	0.39	4.9186517e-18
5.800571020355854e-10	-0.022389613	-0.09829384	-0.9396324	0	0	0.39	5.0172016e-18
5.900083543518697e-10	-0.018910723	-0.08936269	-0.933638	0	0	0.39	4.255139e-18
6.000401914946312e-10	-0.013288277	-0.082507595	-0.9333566	0	0	0.39	4.4600698e-18
6.10057562102697e-10	-0.013842949	-0.07750704	-0.9305287	0	0	0.39	4.190337e-18
6.200590029694458e-10	-0.0038170228	-0.093115956	-0.9287777	0	0	0.39	4.7034883e-18
6.300646489144814e-10	-0.027938621	-0.07889604	-0.93073124	0	0	0.39	5.347315e-18
6.400584006225282e-10	-0.039180517	-0.09005672	-0.9349254	0	0	0.39	4.9702843e-18
6.500242493659164e-10	-0.037281133	-0.07914671	-0.9388987	0	0	0.39	5.3344406e-18
6.600166712827102e-10	-0.038477518	-0.080834486	-0.941137	0	0	0.39	4.269565e-18
6.700316321490095e-10	-0.041933443	-0.068919845	-0.9401122	0	0	0.39	3.782893e-18
6.800380176439886e-10	-0.042487178	-0.05497132	-0.9435414	0	0	0.39	4.3333395e-18
6.900365042260183e-10	-0.034056004	-0.037086707	-0.94301504	0	0	0.39	4.127796e-18
7.000424569700515e-10	-0.0274545	-0.035969373	-0.9446189	0	0	0.39	5.1093023e-18
7.100641519637866e-10	-0.01238329	-0.057995927	-0.9402871	0	0	0.39	3.994968e-18
7.200227725425717e-10	-0.030739354	-0.042761475	-0.94464564	0	0	0.39	3.95796e-18
7.300275442803249e-10	-0.021143448	-0.042973656	-0.9435799	0	0	0.39	3.76601e-18
7.400630566019039e-10	-0.014298566	-0.04299599	-0.94360507	0	0	0.39	4.3373584e-18
7.500557455837651e-10	-0.009448554	-0.046182685	-0.944995	0	0	0.39	4.309058e-18
7.600572446230327e-10	-0.008517862	-0.051683314	-0.94371086	0	0	0.39	4.2946006e-18
7.700422337344365e-10	0.00039100647	-0.050871566	-0.94416606	0	0	0.39	4.3499257e-18
7.800196918573071e-10	-0.024178097	-0.06863827	-0.94557303	0	0	0.39	4.1654967e-18
7.900338613036795e-10	-0.023276724	-0.05932981	-0.9441998	0	0	0.39	4.3619777e-18
8.000135638829185e-10	-0.013467676	-0.074257165	-0.9400444	0	0	0.39	4.365801e-18
8.100105128887728e-10	-0.010863582	-0.07309223	-0.94153327	0	0	0.39	4.9810823e-18
8.200473713721332e-10	0.005704439	-0.08156124	-0.9410665	0	0	0.39	4.496181e-18
8.300238659820275e-10	0.007794609	-0.101666756	-0.9374222	0	0	0.39	4.638441e-18
8.400348540489463e-10	0.024008757	-0.10428101	-0.9391018	0	0	0.39	4.311408e-18
8.500611167102116e-10	0.010291163	-0.106975615	-0.93971395	0	0	0.39	5.307847e-18
8.600229978769115e-10	-2.5175475e-05	-0.08620133	-0.93974274	0	0	0.39	3.6185558e-18
8.700175203166555e-10	0.0058212937	-0.08976804	-0.93952304	0	0	0.39	3.857095e-18
8.800582865674206e-10	-0.006736459	-0.09783183	-0.93744797	0	0	0.39	4.9750993e-18
8.900227418848665e-10	-0.0018201062	-0.09042192	-0.94180447	0	0	0.39	4.4747493e-18
9.000410939112947e-10	-0.004473637	-0.1100341	-0.93643355	0	0	0.39	4.7797573e-18
9.100152557357191e-10	-0.02628588	-0.10046582	-0.93144983	0	0	0.39	5.604347e-18
9.200472577806303e-10	-0.040961247	-0.10451467	-0.9358155	0	0	0.39	3.9458546e-18
9.30031193686983e-10	-0.05891392	-0.09828058	-0.9359205	0	0	0.39	4.2426226e-18
9.400288965149247e-10	-0.037148617	-0.08888801	-0.93892545	0	0	0.39	4.222517e-18
9.500510803578178e-10	-0.043085806	-0.080613896	-0.9410587	0	0	0.39	4.790498e-18
9.600517402199177e-10	-0.031887963	-0.07014433	-0.94651216	0	0	0.39	3.951846e-18
9.70056437551621e-10	-0.031187505	-0.06941247	-0.9463786	0	0	0.39	4.657598e-18
9.80052915329458e-10	-0.015740883	-0.079564	-0.94840336	0	0	0.39	4.6310976e-18
9.900006706611572e-10	-0.01746367	-0.0841027	-0.9506427	0	0	0.39	3.778397e-18
1.0000427843626233e-09	-0.030411718	-0.08886894	-0.952611	0	0	0.39	4.717376e-18
1.0100130850471693e-09	-0.045288566	-0.091863416	-0.9462684	0	0	0.39	3.8316578e-18
1.0200313854735352e-09	-0.05021506	-0.10341501	-0.9471003	0	0	0.39	4.1771426e-18
1.0300189530899346e-09	-0.06791366	-0.092720166	-0.9466835	0	0	0.39	4.459824e-18
1.0400111944161028e-09	-0.07195796	-0.09260931	-0.944314	0	0	0.39	3.8573914e-18
1.0500126264527537e-09	-0.075162	-0.09053012	-0.94042444	0	0	0.39	4.1357385e-18
1.0600556226224217e-09	-0.06652589	-0.100376755	-0.938438	0	0	0.39	4.193117e-18
1.070036726200636e-09	-0.062644154	-0.101807825	-0.9456226	0	0	0.39	3.7928977e-18
1.0800179037763362e-09	-0.07550555	-0.10828518	-0.94382745	0	0	0.39	5.0728683e-18
1.0900279848329468e-09	-0.0717773	-0.100987814	-0.9498083	0	0	0.39	4.1216677e-18
1.100013400102755e-09	-0.08688636	-0.10045795	-0.9477419	0	0	0.39	4.731163e-18
1.1100334902337509e-09	-0.091056064	-0.07924681	-0.95045596	0	0	0.39	4.4931347e-18
1.120000267545162e-09	-0.09543538	-0.065952815	-0.9512107	0	0	0.39	3.947584e-18
1.1300442567645018e-09	-0.092371896	-0.048227396	-0.95097816	0	0	0.39	4.2014902e-18
1.1400578812852618e-09	-0.08429823	-0.045628153	-0.9480498	0	0	0.39	4.8680208e-18
1.1500596480765531e-09	-0.06800301	-0.05057227	-0.9462211	0	0	0.39	4.6770752e-18
1.1600199666306801e-09	-0.092983544	-0.057646822	-0.9439317	0	0	0.39	4.102858e-18
1.1700380379349407e-09	-0.10521451	-0.060880117	-0.9401178	0	0	0.39	5.314422e-18
1.1800639977858464e-09	-0.123017795	-0.057871945	-0.9373856	0	0	0.39	4.781709e-18
1.1900638633856066e-09	-0.14192837	-0.06024152	-0.93316126	0	0	0.39	4.5497883e-18
1.2000194836979886e-09	-0.1465442	-0.04521312	-0.9316591	0	0	0.39	5.191831e-18
1.2100399847907077e-09	-0.14051966	-0.03979661	-0.9354343	0	0	0.39	4.912559e-18
1.2200659162631867e-09	-0.12834963	-0.03837336	-0.93995863	0	0	0.39	4.7738413e-18
1.2300347692708112e-09	-0.13062787	-0.045941167	-0.936847	0	0	0.39	4.411356e-18
1.2400655999470589e-09	-0.13853706	-0.06479547	-0.9372714	0	0	0.39	3.8570257e-18
1.2500317238277395e-09	-0.14835021	-0.056727804	-0.93363	0	0	0.39	5.0535884e-18
1.2600504781479578e-09	-0.14554209	-0.056089796	-0.9340244	0	0	0.39	5.1769095e-18
1.2700115248260943e-09	-0.15083225	-0.06329474	-0.93035316	0	0	0.39	4.837116e-18
1.280056763983831e-09	-0.15165831	-0.04935067	-0.9333226	0	0	0.39	3.2909927e-18
1.2900116709292594e-09	-0.16247578	-0.03647398	-0.9306567	0	0	0.39	5.298272e-18
1.3000408435732832e-09	-0.15485317	-0.034113124	-0.9325306	0	0	0.39	4.973227e-18
1.310015087996144e-09	-0.16444503	-0.005031494	-0.93409115	0	0	0.39	4.0881867e-18
1.3200163194452016e-09	-0.16940716	0.03276817	-0.9368528	0	0	0.39	3.3930922e-18
1.3300225607012764e-09	-0.17137559	0.05347133	-0.9350534	0	0	0.39	4.8685597e-18
1.3400428711065936e-09	-0.16927409	0.07390743	-0.93179893	0	0	0.39	4.4512396e-18
1.3500597049214859e-09	-0.17107055	0.07838471	-0.9299664	0	0	0.39	5.448348e-18
1.3600498221266573e-09	-0.17201206	0.064840324	-0.93403345	0	0	0.39	5.1345235e-18
1.370021601455854e-09	-0.16537566	0.06733527	-0.93598765	0	0	0.39	3.6577108e-18
1.380040739823524e-09	-0.16002654	0.07640568	-0.92993647	0	0	0.39	4.9333904e-18
1.3900192700853681e-09	-0.16306116	0.07264183	-0.92972285	0	0	0.39	5.3461063e-18
1.4000188343236367e-09	-0.15307803	0.0798352	-0.9290125	0	0	0.39	4.842888e-18
1.4100009918550817e-09	-0.15265058	0.09243807	-0.92859954	0	0	0.39	3.7746427e-18
1.4200195429378108e-09	-0.15546009	0.11101279	-0.92686754	0	0	0.39	4.2601113e-18
1.4300537716579016e-09	-0.16294049	0.107134156	-0.92503476	0	0	0.39	4.2933805e-18
1.4400150679138911e-09	-0.15506753	0.13297318	-0.91929144	0	0	0.39	4.382472e-18
1.450048761393762e-09	-0.14173493	0.14992832	-0.9171525	0	0	0.39	4.3419806e-18
1.4600279336830085e-09	-0.15042727	0.16915157	-0.9126727	0	0	0.39	4.8606187e-18
1.4700169602444149e-09	-0.15467529	0.16885751	-0.9060367	0	0	0.39	4.1386832e-18
1.4800220245878664e-09	-0.14170183	0.1680531	-0.9111291	0	0	0.39	5.1698168e-18
1.490047081280365e-09	-0.14664674	0.16823435	-0.9075534	0	0	0.39	4.5302854e-18
1.5000083158784117e-09	-0.15250024	0.17402633	-0.9039343	0	0	0.39	4.6296852e-18
1.5100353097649753e-09	-0.14136481	0.16347776	-0.90937626	0	0	0.39	4.646114e-18
1.5200453297998724e-09	-0.15004487	0.1733818	-0.9064867	0	0	0.39	4.783136e-18
1.5300399751544268e-09	-0.15688339	0.15952183	-0.90913063	0	0	0.39	4.3003714e-18
1.5400560153346753e-09	-0.16436	0.1524021	-0.9132157	0	0	0.39	3.6641793e-18
1.5500261637928282e-09	-0.16686963	0.16009289	-0.90941095	0	0	0.39	3.451216e-18
1.5600042270793748e-09	-0.17282833	0.18324505	-0.9071828	0	0	0.39	3.904184e-18
1.570016738433127e-09	-0.17964229	0.19816354	-0.90175784	0	0	0.39	4.571359e-18
1.5800393194596105e-09	-0.17239872	0.18172805	-0.90447795	0	0	0.39	4.1150345e-18
1.5900200394073384e-09	-0.17068477	0.2173881	-0.8936409	0	0	0.39	5.374137e-18
1.6000414553634247e-09	-0.17606065	0.21376204	-0.89684427	0	0	0.39	4.849684e-18
1.6100397825410895e-09	-0.17438248	0.21098253	-0.8991595	0	0	0.39	3.8152697e-18
1.6200543113807346e-09	-0.17142738	0.18900712	-0.90782934	0	0	0.39	4.804621e-18
1.6300226953978925e-09	-0.17209393	0.16403213	-0.9074405	0	0	0.39	4.6132053e-18
1.640025432509922e-09	-0.18196867	0.16659126	-0.90509754	0	0	0.39	4.669439e-18
1.6500309528821783e-09	-0.20009536	0.16214135	-0.8985808	0	0	0.39	5.5460748e-18
1.6600522615233526e-09	-0.21048269	0.16231368	-0.8936001	0	0	0.39	4.427705e-18
1.6700425657546159e-09	-0.20057225	0.1824902	-0.8960126	0	0	0.39	4.9498054e-18
1.6800507615767238e-09	-0.20328836	0.17704195	-0.8946177	0	0	0.39	4.0797867e-18
1.6900529931038718e-09	-0.19723141	0.17681742	-0.8902865	0	0	0.39	5.3768378e-18
1.7000350652700061e-09	-0.19112466	0.16480236	-0.89273417	0	0	0.39	4.572466e-18
1.7100573365385448e-09	-0.19079342	0.14373551	-0.88758165	0	0	0.39	4.215864e-18
1.720034538331347e-09	-0.20183223	0.12909645	-0.8906222	0	0	0.39	4.5370307e-18
1.730021348833817e-09	-0.21176708	0.1381736	-0.88677496	0	0	0.39	4.319595e-18
1.7400373591444336e-09	-0.24191536	0.14327925	-0.87839025	0	0	0.39	5.274245e-18
1.7500634162645253e-09	-0.27431482	0.1263369	-0.8709596	0	0	0.39	4.7106e-18
1.7600516493622938e-09	-0.2816846	0.11438219	-0.87446886	0	0	0.39	4.672717e-18
1.7700351655668608e-09	-0.273935	0.11940352	-0.87784266	0	0	0.39	4.622008e-18
1.7800624099995973e-09	-0.2972791	0.09106597	-0.87366	0	0	0.39	4.5184836e-18
1.7900315565775518e-09	-0.30820006	0.072075374	-0.8682944	0	0	0.39	4.0194195e-18
1.800017685443019e-09	-0.31152973	0.058178958	-0.8716203	0	0	0.39	4.954543e-18
1.8100106766273826e-09	-0.291717	0.042982504	-0.8782052	0	0	0.39	5.2212153e-18
1.8200575975240614e-09	-0.2858617	0.018327067	-0.8802876	0	0	0.39	4.4007626e-18
1.8300439199953299e-09	-0.27437103	-0.00562844	-0.8781986	0	0	0.39	4.0451063e-18
1.8400271907571968e-09	-0.27006513	-0.02805456	-0.87193644	0	0	0.39	4.533687e-18
1.8500387873141126e-09	-0.27682266	-0.014761692	-0.8645323	0	0	0.39	4.5015136e-18
1.8600236841777086e-09	-0.2698044	-0.037528362	-0.8680492	0	0	0.39	4.731444e-18
1.8700361989255423e-09	-0.27048045	-0.08196795	-0.8676489	0	0	0.39	4.5864543e-18
1.880044507007214e-09	-0.27274105	-0.08903849	-0.86918247	0	0	0.39	4.3137374e-18
1.89003891250697e-09	-0.2610204	-0.07948476	-0.8741996	0	0	0.39	4.5487386e-18
1.900057113543512e-09	-0.25888234	-0.077286065	-0.8703305	0	0	0.39	4.7823385e-18
1.910023470397272e-09	-0.24324505	-0.090371646	-0.87632984	0	0	0.39	4.315287e-18
1.9200156707075857e-09	-0.23872003	-0.09613764	-0.8821611	0	0	0.39	4.433987e-18
1.9300328424727564e-09	-0.23664418	-0.12193406	-0.8813324	0	0	0.39	4.5086013e-18
1.9400549600266186e-09	-0.25161868	-0.15276703	-0.8841981	0	0	0.39	3.8971556e-18
1.950032642288939e-09	-0.24600004	-0.17802086	-0.88301146	0	0	0.39	4.65699e-18
1.9600111823866547e-09	-0.2408839	-0.1967421	-0.8852096	0	0	0.39	3.833826e-18
1.9700003146118284e-09	-0.2475028	-0.19948815	-0.8867106	0	0	0.39	3.943434e-18
1.980063195149552e-09	-0.23026295	-0.20392193	-0.8915233	0	0	0.39	5.0132944e-18
1.9900185085329016e-09	-0.21803921	-0.20161855	-0.894306	0	0	0.39	4.4171796e-18
2.0000429462830298e-09	-0.22603902	-0.21126792	-0.89407843	0	0	0.39	3.7414707e-18
2.0100209118961997e-09	-0.20818073	-0.2064108	-0.897917	0	0	0.39	4.8611978e-18
2.020036267335651e-09	-0.18488169	-0.20752314	-0.8924428	0	0	0.39	5.140726e-18
2.0300258631946737e-09	-0.1776005	-0.21726467	-0.89363164	0	0	0.39	5.6448774e-18
2.0400635459057914e-09	-0.16913347	-0.21548481	-0.8994037	0	0	0.39	3.711252e-18
2.0500317766811585e-09	-0.17575657	-0.22313453	-0.90109944	0	0	0.39	3.864654e-18
2.060009421276857e-09	-0.18364362	-0.23111388	-0.89995325	0	0	0.39	5.316794e-18
2.0700483525848168e-09	-0.21388943	-0.221498	-0.89764744	0	0	0.39	5.3835636e-18
2.08003087595284e-09	-0.21985221	-0.21848635	-0.8942473	0	0	0.39	4.6053285e-18
2.090061538226036e-09	-0.23041087	-0.20503403	-0.8985801	0	0	0.39	4.3106417e-18
2.100064867921863e-09	-0.24706066	-0.20883119	-0.89160305	0	0	0.39	4.3933978e-18
2.110034376899578e-09	-0.23074494	-0.21744828	-0.88578683	0	0	0.39	4.3026304e-18
2.120003161236068e-09	-0.22028428	-0.22047278	-0.8847617	0	0	0.39	4.195808e-18
2.1300400615939726e-09	-0.19599776	-0.23488832	-0.8796832	0	0	0.39	4.077947e-18
2.1400459414631204e-09	-0.16424029	-0.23529911	-0.87493354	0	0	0.39	3.2891896e-18
2.1500077097770807e-09	-0.15639965	-0.28174132	-0.87055916	0	0	0.39	4.445925e-18
2.1600216362323098e-09	-0.13013208	-0.3098218	-0.8734693	0	0	0.39	5.3467805e-18
2.17003365788353e-09	-0.13186	-0.3297981	-0.87415797	0	0	0.39	5.943489e-18
2.1800108684935574e-09	-0.13363275	-0.3458016	-0.8719083	0	0	0.39	4.6603786e-18
2.1900089652562707e-09	-0.16105859	-0.35683328	-0.8652007	0	0	0.39	4.9479355e-18
2.200035234787781e-09	-0.15819861	-0.3421775	-0.86071944	0	0	0.39	4.8635e-18
2.2100592761332477e-09	-0.15303616	-0.34265426	-0.8562538	0	0	0.39	5.8356947e-18
2.220009721057217e-09	-0.12866576	-0.32100174	-0.86685133	0	0	0.39	4.763585e-18
2.2300518350168846e-09	-0.0860395	-0.30167177	-0.87200975	0	0	0.39	5.2381324e-18
2.2400128116516108e-09	-0.031107014	-0.30587953	-0.88002455	0	0	0.39	3.8911924e-18
2.2500511420245893e-09	-0.0010756389	-0.3263727	-0.8716345	0	0	0.39	5.1761286e-18
2.260012136824598e-09	0.019583307	-0.34655246	-0.86754787	0	0	0.39	4.611888e-18
2.270016781039695e-09	0.04995191	-0.3494957	-0.8612878	0	0	0.39	5.493325e-18
2.2800546257439183e-09	0.0571725	-0.32749286	-0.8682037	0	0	0.39	5.0473854e-18
2.2900070635123935e-09	0.05302769	-0.32461143	-0.8657699	0	0	0.39	5.459937e-18
2.300000975450809e-09	0.055262204	-0.3186614	-0.8662722	0	0	0.39	5.5109837e-18
2.3100127794337795e-09	0.060402036	-0.29651555	-0.87302	0	0	0.39	3.986468e-18
2.320011252112983e-09	0.05439418	-0.28999916	-0.86664706	0	0	0.39	4.0868488e-18
2.3300349553580128e-09	0.060592595	-0.2566656	-0.86706734	0	0	0.39	4.9623045e-18
2.340055571531399e-09	0.09988612	-0.23545116	-0.86254674	0	0	0.39	4.2146598e-18
2.3500152324151004e-09	0.12943809	-0.21486145	-0.86909294	0	0	0.39	4.777984e-18
2.3600079416328412e-09	0.1493412	-0.20949359	-0.87927717	0	0	0.39	5.0504116e-18
2.3700416591743544e-09	0.17354265	-0.21413675	-0.88297033	0	0	0.39	3.6658875e-18
2.38002862601472e-09	0.1953591	-0.20287225	-0.8813651	0	0	0.39	4.5183794e-18
2.390009300243034e-09	0.20223947	-0.22514452	-0.8830409	0	0	0.39	4.4956997e-18
2.40001601886211e-09	0.20268618	-0.2292684	-0.88417315	0	0	0.39	4.8469967e-18
2.410041472572878e-09	0.18639423	-0.22664088	-0.8949034	0	0	0.39	5.028635e-18
2.420050380256955e-09	0.17427365	-0.21511026	-0.9035463	0	0	0.39	5.0472853e-18
2.4300112916042876e-09	0.16147439	-0.1876459	-0.9078311	0	0	0.39	4.5785646e-18
2.4400044007228413e-09	0.14704996	-0.17784667	-0.9138883	0	0	0.39	4.300723e-18
2.450036465195166e-09	0.15678857	-0.1420186	-0.9074423	0	0	0.39	4.8156433e-18
2.4600266922910068e-09	0.16441984	-0.12444327	-0.91920614	0	0	0.39	4.5739883e-18
2.470059757173063e-09	0.19412579	-0.11597059	-0.9195813	0	0	0.39	3.5558307e-18
2.480026595812636e-09	0.17129041	-0.13680892	-0.9260378	0	0	0.39	5.322569e-18
2.4900336576308035e-09	0.16256197	-0.17270985	-0.9255042	0	0	0.39	4.467816e-18
2.5000380038343082e-09	0.14670943	-0.17857318	-0.92962235	0	0	0.39	5.2389277e-18
2.510035899815441e-09	0.1322784	-0.18211251	-0.9286696	0	0	0.39	4.4750703e-18
2.5200333975986135e-09	0.12813312	-0.17700706	-0.9260213	0	0	0.39	3.8932505e-18
2.530042898221063e-09	0.107837714	-0.16001375	-0.9282144	0	0	0.39	4.8888893e-18
2.5400426942756007e-09	0.11582119	-0.14872524	-0.9302235	0	0	0.39	3.546834e-18
2.550057686924973e-09	0.12159493	-0.14043368	-0.9292479	0	0	0.39	4.2535803e-18
2.5600332444090032e-09	0.12847945	-0.14817011	-0.927112	0	0	0.39	4.538361e-18
2.570046914831343e-09	0.13917221	-0.15018025	-0.9313905	0	0	0.39	4.1101997e-18
2.5800616401040553e-09	0.12449681	-0.17342108	-0.92802393	0	0	0.39	4.9105896e-18
2.5900538951947637e-09	0.10465329	-0.18221569	-0.92934555	0	0	0.39	4.3288855e-18
2.600059377031047e-09	0.105457455	-0.19342774	-0.9222423	0	0	0.39	4.0190224e-18
2.6100048200226567e-09	0.086539924	-0.20250803	-0.92319185	0	0	0.39	4.2864714e-18
2.6200304529030808e-09	0.07882364	-0.20696217	-0.92380315	0	0	0.39	5.087294e-18
2.630002601627536e-09	0.06737266	-0.19038033	-0.92941	0	0	0.39	3.3221786e-18
2.640043024725394e-09	0.05806859	-0.18653208	-0.92862266	0	0	0.39	4.9267717e-18
2.650000693745282e-09	0.06816381	-0.17370571	-0.9234717	0	0	0.39	5.143499e-18
2.6600234726430663e-09	0.07037073	-0.1778597	-0.9246977	0	0	0.39	4.4563475e-18
2.6700615804053878e-09	0.056913804	-0.20355217	-0.9231522	0	0	0.39	5.0861777e-18
2.6800037111021045e-09	0.042753108	-0.20912175	-0.9249678	0	0	0.39	4.5073717e-18
2.6900341502394396e-09	0.039227698	-0.22404453	-0.92107373	0	0	0.39	4.846909e-18
2.7000455340569803e-09	0.0314139	-0.23848924	-0.92235684	0	0	0.39	4.0184533e-18
2.7100441859536605e-09	0.020577187	-0.24178559	-0.91553617	0	0	0.39	4.027957e-18
2.720059870777852e-09	0.010543988	-0.23269717	-0.91762567	0	0	0.39	4.9756767e-18
2.730009286079643e-09	0.025376419	-0.22084947	-0.9168329	0	0	0.39	4.1309615e-18
2.7400392731729422e-09	0.03437111	-0.20760661	-0.9141088	0	0	0.39	4.584106e-18
2.7500311547977574e-09	0.035364762	-0.20367067	-0.91513705	0	0	0.39	4.8654176e-18
2.7600251540045548e-09	0.0405554	-0.22213392	-0.91151774	0	0	0.39	4.391776e-18
2.770022369921571e-09	0.037588403	-0.23895104	-0.9091604	0	0	0.39	5.850448e-18
2.780050562961894e-09	0.050035994	-0.25692552	-0.90499383	0	0	0.39	4.379327e-18
2.79004592183109e-09	0.024985323	-0.2541223	-0.91096956	0	0	0.39	3.527991e-18
2.8000363685626384e-09	0.01802172	-0.25900862	-0.9095294	0	0	0.39	5.4321253e-18
2.8100548400798844e-09	0.003983021	-0.23771603	-0.91246235	0	0	0.39	5.2373247e-18
2.8200056897083825e-09	-0.011190884	-0.23901552	-0.9120013	0	0	0.39	4.230989e-18
2.8300189006112635e-09	-0.015973976	-0.24156785	-0.91253406	0	0	0.39	5.752516e-18
2.840058250822023e-09	-0.0002101607	-0.23555681	-0.91370934	0	0	0.39	4.4066802e-18
2.850001782633007e-09	-0.0053085363	-0.24527942	-0.9073369	0	0	0.39	4.2239895e-18
2.8600565570756176e-09	-0.0038821779	-0.25021344	-0.906259	0	0	0.39	5.3006958e-18
2.8700607787360305e-09	-0.007065287	-0.2631447	-0.90930176	0	0	0.39	3.716647e-18
2.8800326403774965e-09	-0.0115190325	-0.2722055	-0.9071995	0	0	0.39	4.769655e-18
2.890039371043455e-09	-0.028298555	-0.26722753	-0.9080877	0	0	0.39	5.7211885e-18
2.900029535033283e-09	-0.033053584	-0.25758797	-0.9023025	0	0	0.39	5.0194788e-18
2.9100369907738192e-09	-0.0386545	-0.24468756	-0.90367705	0	0	0.39	5.114077e-18
2.920032616806888e-09	-0.028891629	-0.2319176	-0.90647775	0	0	0.39	5.480248e-18
2.930056449855213e-09	-0.013161929	-0.22477113	-0.90870327	0	0	0.39	5.1291464e-18
2.9400102852263683e-09	0.0041843085	-0.21456915	-0.91361797	0	0	0.39	4.859881e-18
2.950000318010623e-09	-0.012103498	-0.21024777	-0.91339976	0	0	0.39	4.218701e-18
2.960032307629922e-09	-0.016694615	-0.19611095	-0.9188733	0	0	0.39	5.408938e-18
2.970027798893426e-09	-0.01042224	-0.20665109	-0.9239151	0	0	0.39	4.8049983e-18
2.9800548087591335e-09	-0.0017153817	-0.20194343	-0.92177194	0	0	0.39	6.093228e-18
2.9900636945433946e-09	-0.00615415	-0.1918302	-0.9257688	0	0	0.39	4.1132387e-18
3.0000526489841033e-09	0.0026757799	-0.18558504	-0.9278506	0	0	0.39	4.637149e-18
3.0100535854720936e-09	0.009451509	-0.18845086	-0.9273662	0	0	0.39	4.6361757e-18
3.020011050342655e-09	0.0027278399	-0.18663853	-0.93185747	0	0	0.39	5.005553e-18
3.030063655966759e-09	-0.0030744956	-0.17603916	-0.9339246	0	0	0.39	5.0650093e-18
3.0400058155447003e-09	-0.0038778887	-0.1806365	-0.9341243	0	0	0.39	4.742249e-18
3.0500230630359863e-09	-0.023457412	-0.1801069	-0.93430686	0	0	0.39	5.054872e-18
3.060005930585949e-09	-0.024871396	-0.16915756	-0.9327223	0	0	0.39	4.0578793e-18
3.070019936770944e-09	-0.018825913	-0.16854453	-0.9282155	0	0	0.39	4.7132714e-18
3.080034919279545e-09	-0.020422695	-0.17802164	-0.9305029	0	0	0.39	4.9424554e-18
3.090024564233482e-09	-0.015521912	-0.18054394	-0.927356	0	0	0.39	4.675384e-18
3.1000579961896793e-09	-0.019224714	-0.1965668	-0.92614245	0	0	0.39	3.964902e-18
3.1100229675518624e-09	-0.01177038	-0.2083707	-0.9229146	0	0	0.39	4.4399565e-18
3.1200288053746384e-09	-0.01127974	-0.2027637	-0.9233466	0	0	0.39	4.153839e-18
3.1300343915112248e-09	-0.015018774	-0.19008735	-0.9288028	0	0	0.39	4.675004e-18
3.1400286314338538e-09	-0.0064510875	-0.18445466	-0.92376	0	0	0.39	5.0158987e-18
3.150033714252041e-09	-0.016235411	-0.18381672	-0.9255589	0	0	0.39	3.870834e-18
3.1600363604467355e-09	-0.018933682	-0.18836719	-0.92552006	0	0	0.39	4.581977e-18
3.170004473533514e-09	-0.022938138	-0.19891436	-0.9284743	0	0	0.39	4.802637e-18
3.1800113209838968e-09	-0.04766073	-0.21300887	-0.9249746	0	0	0.39	4.3086382e-18
3.190029693187504e-09	-0.057801142	-0.22176038	-0.92094773	0	0	0.39	3.7856657e-18
3.2000181200729877e-09	-0.07445098	-0.22556241	-0.9161421	0	0	0.39	5.213923e-18
3.210029250605328e-09	-0.06521349	-0.20859799	-0.9163348	0	0	0.39	4.768205e-18
3.2200117740735367e-09	-0.07094461	-0.18902233	-0.9192245	0	0	0.39	4.482686e-18
3.2300151381156923e-09	-0.06575577	-0.17932951	-0.9214161	0	0	0.39	4.8716012e-18
3.2400549353947632e-09	-0.07275735	-0.17849216	-0.9200119	0	0	0.39	4.7688877e-18
3.2500072157796394e-09	-0.07617807	-0.18799923	-0.9172086	0	0	0.39	5.309537e-18
3.2600351973808463e-09	-0.06850223	-0.18966018	-0.91936547	0	0	0.39	4.0176816e-18
3.270013338299442e-09	-0.07361552	-0.19487733	-0.91758555	0	0	0.39	4.8039445e-18
3.2800015476477245e-09	-0.05442221	-0.18410349	-0.9198736	0	0	0.39	5.328461e-18
3.2900375252503206e-09	-0.04686396	-0.20380113	-0.9196185	0	0	0.39	4.508903e-18
3.3000089976121245e-09	-0.06427692	-0.20997564	-0.9251737	0	0	0.39	5.2866445e-18
3.310062210051851e-09	-0.08344243	-0.22737217	-0.9232006	0	0	0.39	4.372502e-18
3.320057150419808e-09	-0.10476578	-0.19787215	-0.92736393	0	0	0.39	4.337295e-18
3.3300273082785657e-09	-0.1170015	-0.20334494	-0.92577624	0	0	0.39	4.2955986e-18
3.3400279264228647e-09	-0.123898044	-0.19929072	-0.9221058	0	0	0.39	4.978349e-18
3.350021072540741e-09	-0.11599807	-0.1943392	-0.9245756	0	0	0.39	4.373707e-18
3.360051713837819e-09	-0.10624166	-0.2036145	-0.92256874	0	0	0.39	4.321781e-18
3.3700640631525666e-09	-0.105683215	-0.2010974	-0.92448056	0	0	0.39	4.1670377e-18
3.3800610452694748e-09	-0.09932309	-0.20925452	-0.9266488	0	0	0.39	3.8817965e-18
3.3900371660877674e-09	-0.11688844	-0.2013401	-0.9279848	0	0	0.39	4.1931266e-18
3.400021830476935e-09	-0.11677901	-0.1880779	-0.9277258	0	0	0.39	4.152402e-18
3.410017819026723e-09	-0.1052745	-0.1817108	-0.92815363	0	0	0.39	5.6249746e-18
3.4200091371813096e-09	-0.12095129	-0.16091265	-0.93000525	0	0	0.39	4.097177e-18
3.4300089298429736e-09	-0.12066997	-0.13886023	-0.9305749	0	0	0.39	5.050737e-18
3.4400061382911186e-09	-0.11878928	-0.12200309	-0.93364984	0	0	0.39	4.980649e-18
3.4500588490966874e-09	-0.099830195	-0.13972281	-0.9318887	0	0	0.39	4.25385e-18
3.4600447216489654e-09	-0.10033504	-0.13572715	-0.9323497	0	0	0.39	4.114537e-18
3.470034529135853e-09	-0.104047455	-0.15969886	-0.93216556	0	0	0.39	4.652128e-18
3.4800246424968353e-09	-0.11131246	-0.1502825	-0.93156356	0	0	0.39	4.1002086e-18
3.4900107862921555e-09	-0.109497674	-0.13837826	-0.93349904	0	0	0.39	4.2741903e-18
3.5000619786301407e-09	-0.109132946	-0.112765536	-0.9341232	0	0	0.39	5.485301e-18
3.510046287207104e-09	-0.111776136	-0.11254849	-0.9295698	0	0	0.39	4.2014443e-18
3.5200559633584196e-09	-0.11308695	-0.123885036	-0.9230449	0	0	0.39	5.3458305e-18
3.530021848269524e-09	-0.13266954	-0.12382639	-0.9209584	0	0	0.39	5.078488e-18
3.5400357153600413e-09	-0.119696885	-0.11956759	-0.9267125	0	0	0.39	3.933918e-18
3.5500637251584497e-09	-0.14317249	-0.13654003	-0.9252829	0	0	0.39	4.483231e-18
3.5600600587423592e-09	-0.14936954	-0.12849155	-0.924791	0	0	0.39	4.1450844e-18
3.5700473623730024e-09	-0.14787409	-0.15034527	-0.9252334	0	0	0.39	4.7056216e-18
3.580031286421545e-09	-0.15301992	-0.15221645	-0.92357135	0	0	0.39	4.7456696e-18
3.5900278635913955e-09	-0.15801068	-0.14815396	-0.9246478	0	0	0.39	4.7096322e-18
3.600013337775074e-09	-0.15730424	-0.14350799	-0.92376876	0	0	0.39	5.103714e-18
3.6100589814602635e-09	-0.1596356	-0.13748164	-0.9237368	0	0	0.39	4.6441216e-18
3.6200584255577513e-09	-0.16254696	-0.14342903	-0.9238566	0	0	0.39	3.962586e-18
3.6300263295298203e-09	-0.16334884	-0.1459255	-0.9237074	0	0	0.39	4.3740984e-18
3.6400591907053773e-09	-0.16347058	-0.120036274	-0.92843366	0	0	0.39	4.96549e-18
3.6500334903840956e-09	-0.16996224	-0.09422422	-0.9219036	0	0	0.39	4.301112e-18
3.6600488218294043e-09	-0.15017515	-0.077735014	-0.92164457	0	0	0.39	5.2796622e-18
3.6700226758386153e-09	-0.1437717	-0.08652368	-0.9163059	0	0	0.39	4.083108e-18
3.68001798564197e-09	-0.14904323	-0.09773034	-0.91722137	0	0	0.39	4.5772916e-18
3.690003581230164e-09	-0.14819166	-0.10323982	-0.9189243	0	0	0.39	4.43372e-18
3.700005870691746e-09	-0.16422924	-0.1071547	-0.9222809	0	0	0.39	4.2999363e-18
3.710009522942911e-09	-0.17051756	-0.12608738	-0.9204405	0	0	0.39	4.593118e-18
3.7200531861493453e-09	-0.16646972	-0.13731147	-0.919665	0	0	0.39	4.8084485e-18