# t (s)	mx ()	my ()	mz ()	B_extx (T)	B_exty (T)	B_extz (T)	E_total (J)
0	0	0	-1	0	0	0.41	1.3250005e-18
1.0044467390030445e-11	-0.0029250246	-0.0012571844	-0.97434413	0	0	0.41	4.6107205e-18
2.000083656518737e-11	-0.02544779	-0.027088711	-0.96820337	0	0	0.41	5.9182006e-18
3.001981157957952e-11	-0.0010319444	-0.013763278	-0.963706	0	0	0.41	5.0825745e-18
4.0027562188011644e-11	-0.0024348574	-0.0058671623	-0.9627749	0	0	0.41	4.1360085e-18
5.005743035770425e-11	-0.0007645015	0.0050554676	-0.9572127	0	0	0.41	4.899259e-18
6.002780906145299e-11	0.0022964266	0.012018076	-0.9575555	0	0	0.41	4.022792e-18
7.005733288098246e-11	0.015671516	0.008547273	-0.9580253	0	0	0.41	4.5749097e-18
8.000118871433054e-11	-9.544612e-05	-0.0070101735	-0.9580821	0	0	0.41	5.113712e-18
9.003968117301776e-11	0.010987036	-0.0011656014	-0.9547107	0	0	0.41	4.70073e-18
1.0000116696376106e-10	0.0039030607	-0.011005272	-0.9534342	0	0	0.41	4.8250694e-18
1.1005177014935294e-10	-0.0009281882	-0.02502526	-0.95532346	0	0	0.41	5.033405e-18
1.2001331781170647e-10	-0.0025558183	-0.008582785	-0.9557008	0	0	0.41	5.8630037e-18
1.3004346066936115e-10	-0.0009643601	-0.01599944	-0.9568148	0	0	0.41	4.9548842e-18
1.400591177683487e-10	-0.012087592	-0.01655593	-0.95638686	0	0	0.41	4.1921654e-18
1.5002276687886947e-10	0.0006885658	0.0021568807	-0.95611286	0	0	0.41	4.9475827e-18
1.6006366385081088e-10	0.008411723	-0.005260691	-0.95767695	0	0	0.41	4.077356e-18
1.7005913264777043e-10	0.0075066756	-0.017931059	-0.96184313	0	0	0.41	5.3466295e-18
1.8000402215479773e-10	0.01778953	0.0058654393	-0.95724225	0	0	0.41	4.6240223e-18
1.9004670432328487e-10	0.024793705	0.014834119	-0.96031845	0	0	0.41	4.7231537e-18
2.0002325787658936e-10	0.015379362	0.01993055	-0.9586362	0	0	0.41	4.458592e-18
2.1005221891179609e-10	0.02716702	0.036789317	-0.9593092	0	0	0.41	4.260782e-18
2.2005754971328716e-10	0.037609562	0.043006092	-0.95769864	0	0	0.41	4.6992466e-18
2.3001832556892827e-10	0.035989795	0.03935579	-0.96064526	0	0	0.41	4.406944e-18
2.400387633241345e-10	0.015154905	0.037320215	-0.9628998	0	0	0.41	4.098857e-18
2.5001643668925467e-10	0.017199168	0.031292517	-0.96004766	0	0	0.41	4.876046e-18
2.6000623385682486e-10	0.0119020045	0.034659892	-0.95843804	0	0	0.41	4.7322143e-18
2.700252270656275e-10	0.008491475	0.051476125	-0.9553868	0	0	0.41	6.0408247e-18
2.800185294193773e-10	0.0029389048	0.05459154	-0.9543908	0	0	0.41	4.926924e-18
2.9004393319615175e-10	0.011490549	0.05941988	-0.9534803	0	0	0.41	4.1200737e-18
3.0002131825705787e-10	0.012039915	0.067466795	-0.9500172	0	0	0.41	4.7693782e-18
3.100073233430188e-10	0.025495078	0.06615207	-0.9497424	0	0	0.41	4.8924185e-18
3.2002455551277254e-10	0.018237619	0.082419746	-0.94995314	0	0	0.41	4.719855e-18
3.300357540631557e-10	0.030819226	0.08644004	-0.9486476	0	0	0.41	4.3714357e-18
3.4002834383913724e-10	0.008555946	0.09139348	-0.9468502	0	0	0.41	4.4303306e-18
3.5004963897818937e-10	0.004784252	0.07340481	-0.9483856	0	0	0.41	5.2131234e-18
3.600421862862686e-10	0.0030429293	0.06716793	-0.95065385	0	0	0.41	4.567152e-18
3.7001052340608263e-10	0.020345194	0.06539024	-0.95012647	0	0	0.41	4.3212544e-18
3.8000105901773243e-10	0.024382764	0.04545629	-0.9471927	0	0	0.41	5.4649073e-18
3.9002205584030623e-10	0.009864608	0.063544124	-0.94584405	0	0	0.41	4.5162626e-18
4.000167317380633e-10	0.022124039	0.08354059	-0.94236463	0	0	0.41	5.018295e-18
4.10050447529599e-10	0.027314125	0.08307665	-0.9378593	0	0	0.41	5.199258e-18
4.2003453567293183e-10	0.01889543	0.0684036	-0.93881017	0	0	0.41	4.3926533e-18
4.3005833418719417e-10	0.03813361	0.04994827	-0.9377963	0	0	0.41	5.079572e-18
4.400304488481213e-10	0.03169236	0.051274728	-0.9446345	0	0	0.41	4.7978717e-18
4.50047125476284e-10	0.04860045	0.05646216	-0.94371474	0	0	0.41	4.7237448e-18
4.6005615204076875e-10	0.060748003	0.037655383	-0.94522184	0	0	0.41	4.150918e-18
4.700228602314197e-10	0.051872294	0.035254862	-0.9417667	0	0	0.41	4.726425e-18
4.800576653089047e-10	0.05002296	0.058609024	-0.9389351	0	0	0.41	4.702386e-18
4.900026806324156e-10	0.06823107	0.062567	-0.94715124	0	0	0.41	4.2642823e-18
5.000399923597767e-10	0.08111519	0.06257767	-0.9443361	0	0	0.41	5.2739113e-18
5.100153069168608e-10	0.08155902	0.058827214	-0.94143885	0	0	0.41	4.280426e-18
5.200285377352105e-10	0.06952683	0.046919156	-0.9415894	0	0	0.41	5.6385536e-18
5.300553228831141e-10	0.073160514	0.019151894	-0.93782514	0	0	0.41	5.202806e-18
5.400459809691066e-10	0.07136042	0.024444375	-0.9371522	0	0	0.41	5.28217e-18
5.500579053957937e-10	0.06872343	0.022430638	-0.9407985	0	0	0.41	4.8430118e-18
5.60038831267154e-10	0.08345836	0.023564763	-0.93728215	0	0	0.41	4.843368e-18
5.700086826670728e-10	0.0702598	0.026463274	-0.93416905	0	0	0.41	4.064563e-18
5.800180973120001e-10	0.07719847	0.028086254	-0.9386079	0	0	0.41	4.338262e-18
5.90029020785683e-10	0.08603289	0.017430797	-0.9355543	0	0	0.41	5.2468203e-18
6.000477906319401e-10	0.0792336	0.0101294685	-0.9379581	0	0	0.41	4.333839e-18
6.100286552588054e-10	0.073907346	0.03236579	-0.9376295	0	0	0.41	4.2773902e-18
6.200066378808198e-10	0.074269384	0.01392931	-0.9398626	0	0	0.41	4.354615e-18
6.30053753642665e-10	0.08315914	0.01687208	-0.9390526	0	0	0.41	3.7853745e-18
6.400187668248363e-10	0.09284653	0.014642504	-0.9388704	0	0	0.41	4.8466915e-18
6.500569487868498e-10	0.0638306	0.02770081	-0.94172376	0	0	0.41	5.356613e-18
6.600071726209963e-10	0.059640218	0.030596219	-0.94466996	0	0	0.41	5.025215e-18
6.700158540949715e-10	0.06120622	0.021500973	-0.9438298	0	0	0.41	4.9248787e-18
6.800263902455192e-10	0.05337889	0.018849708	-0.94545424	0	0	0.41	4.5894698e-18
6.900202174249232e-10	0.06042461	0.009989725	-0.94739026	0	0	0.41	4.266856e-18
7.000393085677053e-10	0.053563785	0.013274408	-0.9481912	0	0	0.41	4.2283645e-18
7.100348360166158e-10	0.057671525	0.03088513	-0.9461096	0	0	0.41	4.2344707e-18
7.200632402095836e-10	0.07003051	0.020595856	-0.9488997	0	0	0.41	4.8683124e-18
7.300178631848991e-10	0.05541557	0.01246721	-0.94877434	0	0	0.41	5.084928e-18
7.40011568605286e-10	0.056643337	0.024361573	-0.9463778	0	0	0.41	4.587645e-18
7.500617896537854e-10	0.044219524	0.0214596	-0.94755757	0	0	0.41	4.9456202e-18
7.600118320589622e-10	0.053147677	0.03965421	-0.94954073	0	0	0.41	4.2686407e-18
7.700329698344795e-10	0.053163763	0.048329674	-0.94696766	0	0	0.41	4.998195e-18
7.800632654533461e-10	0.060587164	0.06429761	-0.94521904	0	0	0.41	3.680387e-18
7.900203354395974e-10	0.04799577	0.05338447	-0.94540787	0	0	0.41	5.2055824e-18
8.000305284082613e-10	0.05601	0.057765275	-0.95117563	0	0	0.41	4.244971e-18
8.100409289983428e-10	0.0523121	0.03888433	-0.9524038	0	0	0.41	4.4332373e-18
8.200010539011059e-10	0.037231646	0.032110255	-0.9557423	0	0	0.41	5.25154e-18
8.300142382466333e-10	0.023699883	0.044715665	-0.9534646	0	0	0.41	4.6933343e-18
8.400571180820916e-10	0.03680404	0.055889178	-0.9559399	0	0	0.41	4.23635e-18
8.500385301944397e-10	0.04039471	0.056931976	-0.95397913	0	0	0.41	4.626842e-18
8.600573656105215e-10	0.04581647	0.07771578	-0.9530522	0	0	0.41	5.0009884e-18
8.700200869181124e-10	0.052637335	0.073237486	-0.95311856	0	0	0.41	5.1089723e-18
8.800076938941799e-10	0.061317336	0.080709495	-0.95133346	0	0	0.41	5.557294e-18
8.900090654810581e-10	0.074214116	0.09412273	-0.949384	0	0	0.41	4.5613258e-18
9.000120492999666e-10	0.08730643	0.08904078	-0.9486526	0	0	0.41	5.371974e-18
9.100001300516052e-10	0.07678118	0.09635057	-0.949128	0	0	0.41	5.4558182e-18
9.200304655749957e-10	0.08372891	0.086482055	-0.94824046	0	0	0.41	3.975329e-18
9.300444984052472e-10	0.08403135	0.076742165	-0.94757485	0	0	0.41	3.9127384e-18
9.400354414441988e-10	0.06738151	0.06333573	-0.94467616	0	0	0.41	5.526347e-18
9.500582100891132e-10	0.068512686	0.067361206	-0.9467338	0	0	0.41	5.3050856e-18
9.600605891496724e-10	0.075254805	0.055866882	-0.95328075	0	0	0.41	4.7543707e-18
9.700145507367574e-10	0.089010425	0.06089988	-0.9487652	0	0	0.41	4.584126e-18
9.800112262048032e-10	0.075637385	0.079350986	-0.9508412	0	0	0.41	3.895706e-18
9.900014014799917e-10	0.07896286	0.080191135	-0.94656295	0	0	0.41	4.4587798e-18
1.0000223314331507e-09	0.084647246	0.0833803	-0.9426492	0	0	0.41	4.321852e-18
1.0100547524066792e-09	0.090590924	0.086426586	-0.9399172	0	0	0.41	4.587378e-18
1.0200429541945649e-09	0.08591077	0.09646443	-0.9359157	0	0	0.41	4.7528284e-18
1.0300100000052313e-09	0.08624872	0.10108544	-0.935199	0	0	0.41	5.434559e-18
1.0400206622540086e-09	0.07700599	0.1149992	-0.9363894	0	0	0.41	4.46596e-18
1.0500511060347055e-09	0.065311454	0.12865624	-0.9367548	0	0	0.41	5.7087394e-18
1.0600200726293939e-09	0.05341087	0.14083347	-0.93902016	0	0	0.41	4.3076766e-18
1.0700231944914598e-09	0.053923074	0.13925996	-0.9428401	0	0	0.41	3.5543446e-18
1.0800232571282202e-09	0.044122405	0.15055175	-0.94058424	0	0	0.41	5.0574414e-18
1.09004295945759e-09	0.047901556	0.13852014	-0.9439349	0	0	0.41	5.0548486e-18
1.1000296786986704e-09	0.053795386	0.10854537	-0.9501892	0	0	0.41	4.377708e-18
1.1100314445845817e-09	0.059731912	0.09460474	-0.94928277	0	0	0.41	4.853777e-18
1.120044564710491e-09	0.07557841	0.09783199	-0.9415286	0	0	0.41	5.1353742e-18
1.1300112099524772e-09	0.089583695	0.1047874	-0.93179727	0	0	0.41	4.4239294e-18
1.1400372755296759e-09	0.07853167	0.103033036	-0.9347565	0	0	0.41	5.1996735e-18
1.1500178380011652e-09	0.07209241	0.11769291	-0.93373704	0	0	0.41	4.964616e-18
1.1600116008857619e-09	0.04839768	0.12551333	-0.93344086	0	0	0.41	4.15637e-18
1.170022204869762e-09	0.055166114	0.11703305	-0.9340375	0	0	0.41	5.1469767e-18
1.1800113750540233e-09	0.038836952	0.11647366	-0.93488735	0	0	0.41	5.0890654e-18
1.190011966668957e-09	0.034818612	0.108050175	-0.9329578	0	0	0.41	4.8773e-18
1.2000633163258473e-09	0.04031093	0.10905049	-0.93209976	0	0	0.41	5.145196e-18
1.2100642011858943e-09	0.04394355	0.10389101	-0.92972314	0	0	0.41	4.2578324e-18
1.2200428736254532e-09	0.023290668	0.09112571	-0.9361667	0	0	0.41	4.6108793e-18
1.2300443309341777e-09	0.016764957	0.08934133	-0.9335547	0	0	0.41	5.3618794e-18
1.2400104886548048e-09	0.0020302646	0.0844209	-0.93146783	0	0	0.41	4.6340507e-18
1.2500175610340164e-09	-0.000823681	0.097519256	-0.93491125	0	0	0.41	4.807761e-18
1.2600323730342751e-09	0.009819608	0.09143611	-0.9367501	0	0	0.41	5.289616e-18
1.2700107547960177e-09	0.005432804	0.10591212	-0.9345387	0	0	0.41	4.611327e-18
1.2800112156837321e-09	0.009044702	0.12663515	-0.9339885	0	0	0.41	4.3420985e-18
1.2900053407408983e-09	0.022334134	0.12564027	-0.9370836	0	0	0.41	4.446814e-18
1.3000464484362008e-09	0.03822206	0.13776119	-0.9355356	0	0	0.41	3.848771e-18
1.3100206785624684e-09	0.03714194	0.13577148	-0.9371393	0	0	0.41	5.2730924e-18
1.3200360232405853e-09	0.027214069	0.1380552	-0.93755937	0	0	0.41	4.6981733e-18
1.3300349359737657e-09	0.023647163	0.12948178	-0.9359946	0	0	0.41	4.078087e-18
1.3400517579338159e-09	0.036106087	0.12925184	-0.93953085	0	0	0.41	3.929624e-18
1.3500398636754274e-09	0.029075373	0.13584653	-0.93459165	0	0	0.41	4.4290095e-18
1.3600213005325929e-09	0.04741309	0.13928448	-0.9351774	0	0	0.41	4.579373e-18
1.3700035952714464e-09	0.045375183	0.13136089	-0.93489164	0	0	0.41	4.8593598e-18
1.380017850380636e-09	0.057608206	0.10555277	-0.93792933	0	0	0.41	4.570677e-18
1.3900550087421873e-09	0.049322527	0.104653016	-0.93295145	0	0	0.41	3.781764e-18
1.4000356491478875e-09	0.04250983	0.101895384	-0.9397087	0	0	0.41	4.2739248e-18
1.4100592246211688e-09	0.032715507	0.1017861	-0.9391463	0	0	0.41	4.975334e-18
1.420031009583776e-09	0.01789517	0.11542041	-0.93815005	0	0	0.41	4.6617682e-18
1.430042245917895e-09	0.021884754	0.13805139	-0.9397437	0	0	0.41	3.895434e-18
1.440037857268366e-09	0.02069796	0.13646337	-0.9389553	0	0	0.41	4.3843228e-18
1.4500015254745056e-09	0.018429209	0.13377948	-0.9407654	0	0	0.41	5.1565786e-18
1.460030441137368e-09	0.04100357	0.14129871	-0.9405647	0	0	0.41	4.4679433e-18
1.4700426807283426e-09	0.042744145	0.12618983	-0.93747777	0	0	0.41	4.7446985e-18
1.4800044438727016e-09	0.04094117	0.12020094	-0.93528634	0	0	0.41	4.9451814e-18
1.490027289457204e-09	0.027477669	0.108944215	-0.9344183	0	0	0.41	4.286851e-18
1.5000261341017899e-09	0.011504056	0.110947795	-0.93349963	0	0	0.41	5.231265e-18
1.5100159394713493e-09	-0.005801208	0.13989106	-0.9270465	0	0	0.41	4.271405e-18
1.5200473841096476e-09	-0.019984482	0.16878496	-0.9244902	0	0	0.41	4.3666062e-18
1.5300001627124807e-09	-0.014261124	0.17709237	-0.9241064	0	0	0.41	4.6401685e-18
1.5400583543283854e-09	-0.0048667644	0.18483238	-0.9205284	0	0	0.41	4.349311e-18
1.5500430146624099e-09	-0.011520245	0.19096917	-0.9214377	0	0	0.41	4.9203404e-18
1.5600068803109838e-09	-0.013631421	0.17691348	-0.9176753	0	0	0.41	4.8067457e-18
1.570004635092823e-09	-0.019394837	0.16088073	-0.9233808	0	0	0.41	5.3329455e-18
1.5800445986881913e-09	-0.02448438	0.1516468	-0.9223042	0	0	0.41	4.172208e-18
1.5900024648407737e-09	-0.028653119	0.1514295	-0.91715485	0	0	0.41	5.2748323e-18
1.600037758774793e-09	-0.050162353	0.1553661	-0.92458147	0	0	0.41	4.4073126e-18
1.610039685100834e-09	-0.06355311	0.16992894	-0.9258402	0	0	0.41	4.7214105e-18
1.6200218078160978e-09	-0.0802424	0.17730017	-0.9240038	0	0	0.41	4.333869e-18
1.6300604552735893e-09	-0.09273976	0.18713592	-0.9274079	0	0	0.41	5.263559e-18
1.6400535168067663e-09	-0.08347061	0.1890365	-0.9296301	0	0	0.41	5.231817e-18
1.6500257509643394e-09	-0.072131105	0.18113728	-0.93307585	0	0	0.41	4.7508763e-18
1.6600358438618923e-09	-0.06212916	0.16135599	-0.93752074	0	0	0.41	4.6845087e-18
1.6700373177459893e-09	-0.06965601	0.12987003	-0.9356509	0	0	0.41	4.3988315e-18
1.6800629762598854e-09	-0.08713419	0.097828515	-0.9307038	0	0	0.41	5.054219e-18
1.6900170877630929e-09	-0.096913055	0.10492704	-0.93226737	0	0	0.41	5.0134354e-18
1.7000261046641263e-09	-0.10613637	0.121317245	-0.9281097	0	0	0.41	4.18644e-18
1.7100606874887991e-09	-0.10276572	0.12748195	-0.9285102	0	0	0.41	4.524047e-18
1.7200541672400751e-09	-0.105347075	0.12350182	-0.9292308	0	0	0.41	6.573034e-18
1.7300545236165343e-09	-0.11159354	0.11328139	-0.9306982	0	0	0.41	4.2539244e-18
1.740018857119173e-09	-0.11399855	0.10962773	-0.9327004	0	0	0.41	5.125099e-18
1.7500479243085466e-09	-0.115942076	0.12223442	-0.9322197	0	0	0.41	5.1029136e-18
1.7600174798390398e-09	-0.10909754	0.10980469	-0.9349936	0	0	0.41	5.367637e-18
1.7700162784807499e-09	-0.118643135	0.110356025	-0.9368844	0	0	0.41	4.7475928e-18
1.780049818716063e-09	-0.11511122	0.107346974	-0.93298835	0	0	0.41	5.5410927e-18
1.7900565410250708e-09	-0.09804795	0.079470664	-0.9380703	0	0	0.41	4.927707e-18
1.8000410846526961e-09	-0.088013306	0.06763638	-0.9358165	0	0	0.41	5.0685004e-18
1.8100434397233791e-09	-0.08992453	0.0677287	-0.9377664	0	0	0.41	4.516276e-18
1.8200632622208566e-09	-0.104703516	0.07204175	-0.9385833	0	0	0.41	3.529058e-18
1.8300061538215372e-09	-0.11016353	0.08249451	-0.93874794	0	0	0.41	5.0567536e-18
1.8400021069781584e-09	-0.12918226	0.10308945	-0.9347315	0	0	0.41	4.9131468e-18
1.8500519858684432e-09	-0.115971334	0.1076619	-0.9330189	0	0	0.41	3.8518083e-18
1.8600635851300496e-09	-0.12185952	0.104178816	-0.93284655	0	0	0.41	5.5251794e-18
1.8700225827383595e-09	-0.112105064	0.110845104	-0.93344945	0	0	0.41	5.4906996e-18
1.880030343196488e-09	-0.11283935	0.10345976	-0.9292469	0	0	0.41	4.3580916e-18
1.8900156768168843e-09	-0.11588864	0.085644804	-0.93507904	0	0	0.41	4.331804e-18
1.9000098129457313e-09	-0.13281228	0.071365215	-0.9347449	0	0	0.41	4.0154366e-18
1.910005434530042e-09	-0.14477171	0.084184	-0.9324377	0	0	0.41	3.9285417e-18
1.9200482138661734e-09	-0.14919801	0.08804184	-0.9332315	0	0	0.41	5.0934506e-18
1.9300376020075865e-09	-0.17613788	0.08948869	-0.92984897	0	0	0.41	5.991577e-18
1.9400273271854016e-09	-0.16548587	0.09118499	-0.9305179	0	0	0.41	4.7303713e-18
1.950012791596979e-09	-0.15114415	0.091122165	-0.9285652	0	0	0.41	4.604044e-18
1.9600038994787536e-09	-0.14211506	0.08554262	-0.9265322	0	0	0.41	4.635132e-18
1.9700477302738996e-09	-0.16430598	0.07169711	-0.9200192	0	0	0.41	4.175825e-18
1.9800140975683046e-09	-0.19141123	0.07130404	-0.9158477	0	0	0.41	4.3553934e-18
1.9900282560055747e-09	-0.19387145	0.06387972	-0.9195977	0	0	0.41	5.0034844e-18
2.0000626424660194e-09	-0.19420561	0.05843685	-0.92374724	0	0	0.41	4.64101e-18
2.010035911254124e-09	-0.19539225	0.043985147	-0.92443156	0	0	0.41	4.3942117e-18
2.0200256698401466e-09	-0.1976651	0.049591508	-0.9193381	0	0	0.41	5.6458e-18
2.0300599940547286e-09	-0.18565096	0.0439221	-0.9159988	0	0	0.41	4.6416678e-18
2.040063765664207e-09	-0.18094364	0.027581755	-0.91780454	0	0	0.41	5.286756e-18
2.0500056535378303e-09	-0.16789532	0.0061747218	-0.9266147	0	0	0.41	4.9401497e-18
2.0600511135110607e-09	-0.17057489	0.0023041035	-0.9257222	0	0	0.41	3.9977254e-18
2.0700248909872602e-09	-0.15336473	0.0027000862	-0.92780983	0	0	0.41	4.898784e-18
2.0800451561054467e-09	-0.15422685	-0.009475666	-0.9299002	0	0	0.41	5.6512127e-18
2.0900395940323313e-09	-0.1602677	-0.03999825	-0.9281607	0	0	0.41	4.146035e-18
2.1000498124207844e-09	-0.16655153	-0.06595132	-0.9261593	0	0	0.41	4.40415e-18
2.1100581626464466e-09	-0.1784693	-0.058218636	-0.9247223	0	0	0.41	4.9827255e-18
2.1200400508876356e-09	-0.18248989	-0.0556596	-0.9274442	0	0	0.41	5.085106e-18
2.130041988300847e-09	-0.1972875	-0.039536823	-0.92794305	0	0	0.41	4.638671e-18
2.1400434523966684e-09	-0.1977344	-0.015418656	-0.92754114	0	0	0.41	4.8764067e-18
2.15005320365788e-09	-0.18632346	-0.027832175	-0.9318346	0	0	0.41	4.1083046e-18
2.1600576339990354e-09	-0.17943795	-0.035911288	-0.9346252	0	0	0.41	4.145643e-18
2.1700446751679453e-09	-0.18848678	-0.0314161	-0.92996794	0	0	0.41	4.6610875e-18
2.180002135733093e-09	-0.17767783	-0.023991264	-0.93150383	0	0	0.41	5.212577e-18
2.190045304073198e-09	-0.17721803	-0.02316619	-0.9276938	0	0	0.41	4.8290494e-18
2.2000448989863295e-09	-0.1693131	-0.030141527	-0.9282818	0	0	0.41	3.9908987e-18
2.2100240839326327e-09	-0.1584464	-0.024523294	-0.9365954	0	0	0.41	5.1581395e-18
2.2200093879607682e-09	-0.15966327	-0.016073275	-0.93979335	0	0	0.41	4.136041e-18
2.230058662597657e-09	-0.17507817	-0.019148577	-0.936247	0	0	0.41	3.4262371e-18
2.240035667221755e-09	-0.17216046	-0.015643086	-0.935889	0	0	0.41	4.4535495e-18
2.2500429680305582e-09	-0.16548993	-0.008134836	-0.9375484	0	0	0.41	5.3983614e-18
2.2600627907796706e-09	-0.1646885	-0.010449975	-0.9371753	0	0	0.41	4.864966e-18
2.2700518334897825e-09	-0.14463793	0.0010062996	-0.94093007	0	0	0.41	4.9604934e-18
2.280061255311907e-09	-0.1462625	0.0027058162	-0.9386877	0	0	0.41	4.660764e-18
2.290004825418212e-09	-0.15591432	0.0037084254	-0.9361227	0	0	0.41	5.2977155e-18
2.3000421529946657e-09	-0.15090217	-0.00040556293	-0.9376864	0	0	0.41	4.530367e-18
2.310004938982718e-09	-0.14664072	0.0052838163	-0.93776804	0	0	0.41	4.3379556e-18
2.3200160829587787e-09	-0.1679383	0.025040492	-0.93541557	0	0	0.41	4.407723e-18
2.3300441109882735e-09	-0.16084367	0.020860188	-0.93371296	0	0	0.41	4.0296633e-18
2.3400382078027517e-09	-0.15813847	0.018824672	-0.9337171	0	0	0.41	4.436103e-18
2.350011713805942e-09	-0.17980897	0.02476852	-0.9317137	0	0	0.41	4.6273385e-18
2.3600334160154976e-09	-0.18215777	0.028399885	-0.93078387	0	0	0.41	4.1742474e-18
2.370024020182788e-09	-0.1857205	0.047806248	-0.92493826	0	0	0.41	4.7434925e-18
2.380033995773356e-09	-0.19754532	0.05126203	-0.9214255	0	0	0.41	4.3094774e-18
2.3900247977697526e-09	-0.19867082	0.04750422	-0.92139506	0	0	0.41	5.738187e-18
2.400063544747852e-09	-0.19264598	0.039360106	-0.9254239	0	0	0.41	4.2303663e-18
2.4100627443520074e-09	-0.19076961	0.017876932	-0.92942894	0	0	0.41	4.9477147e-18
2.420035854523732e-09	-0.18591261	0.026643516	-0.9331832	0	0	0.41	4.1329434e-18
2.4300618685121643e-09	-0.17500778	0.026415458	-0.93277043	0	0	0.41	5.1047363e-18
2.4400105596529044e-09	-0.1738287	0.022464499	-0.9330335	0	0	0.41	5.0729118e-18
2.450053362921401e-09	-0.2067622	0.0049162516	-0.92971516	0	0	0.41	4.4947187e-18
2.460035559294092e-09	-0.207769	-0.0011677084	-0.9270955	0	0	0.41	4.7981133e-18
2.470048391627497e-09	-0.20927876	-0.004502334	-0.930665	0	0	0.41	5.1478096e-18
2.4800569884354613e-09	-0.22266452	0.016479453	-0.929089	0	0	0.41	5.310802e-18
2.4900190066365736e-09	-0.2144848	0.014542751	-0.92798966	0	0	0.41	4.43832e-18
2.5000284329176293e-09	-0.1818998	-0.011884741	-0.92914	0	0	0.41	4.8226938e-18
2.510054836830091e-09	-0.17031927	-0.031227546	-0.92958087	0	0	0.41	4.612713e-18
2.5200050869919194e-09	-0.18645425	-0.042546913	-0.9277839	0	0	0.41	5.3960337e-18
2.5300236274911767e-09	-0.185412	-0.052538577	-0.9306521	0	0	0.41	4.2766685e-18
2.5400489311143175e-09	-0.18226428	-0.063926905	-0.9361665	0	0	0.41	4.1159428e-18
2.550043917488374e-09	-0.19242832	-0.08114622	-0.9316534	0	0	0.41	4.7732085e-18
2.560019718031017e-09	-0.17881343	-0.07359612	-0.93376696	0	0	0.41	5.40094e-18
2.5700170735574103e-09	-0.16779932	-0.084257856	-0.934975	0	0	0.41	3.9693507e-18
2.580028576643146e-09	-0.15414636	-0.07991817	-0.93608767	0	0	0.41	5.579772e-18
2.590017244126071e-09	-0.14180294	-0.08635276	-0.93298227	0	0	0.41	5.2856564e-18
2.6000127413900197e-09	-0.15577576	-0.09134246	-0.9317143	0	0	0.41	4.415357e-18
2.610043789288251e-09	-0.15572895	-0.09396781	-0.9317951	0	0	0.41	5.3013302e-18
2.6200438175640983e-09	-0.15616883	-0.097575486	-0.9285636	0	0	0.41	4.2533185e-18
2.630048365191027e-09	-0.1520957	-0.118820086	-0.93098855	0	0	0.41	4.66341e-18
2.6400593889090286e-09	-0.16020651	-0.13018869	-0.92642015	0	0	0.41	4.8777476e-18
2.650005306859395e-09	-0.16467395	-0.14236817	-0.92715883	0	0	0.41	4.7580533e-18
2.660049881921597e-09	-0.14913262	-0.16069031	-0.9253494	0	0	0.41	4.6941015e-18
2.6700195724372382e-09	-0.14877218	-0.15471132	-0.9266363	0	0	0.41	5.3193582e-18
2.680041230799737e-09	-0.12818708	-0.15908988	-0.9300686	0	0	0.41	5.0603274e-18
2.69004005707199e-09	-0.11121087	-0.17419536	-0.9255864	0	0	0.41	4.3171383e-18
2.7000191278326466e-09	-0.116500415	-0.16251977	-0.9271033	0	0	0.41	4.0269328e-18
2.7100498767937285e-09	-0.122522324	-0.16934867	-0.9237181	0	0	0.41	4.518255e-18
2.7200636152488903e-09	-0.11585665	-0.1829996	-0.9201067	0	0	0.41	5.076049e-18
2.7300631143989452e-09	-0.103900515	-0.19650926	-0.9220727	0	0	0.41	5.1185295e-18
2.7400319097698524e-09	-0.09536037	-0.17876552	-0.92264277	0	0	0.41	4.9855793e-18
2.7500475971630154e-09	-0.07905401	-0.19004457	-0.919767	0	0	0.41	4.5427775e-18
2.7600531818601967e-09	-0.0813218	-0.17463455	-0.9228021	0	0	0.41	4.5965963e-18
2.7700214324968292e-09	-0.06250652	-0.17659587	-0.9215237	0	0	0.41	5.5110656e-18
2.780025513103194e-09	-0.067612536	-0.18803094	-0.9178858	0	0	0.41	4.7417227e-18
2.790017356520921e-09	-0.061582033	-0.18451653	-0.91404235	0	0	0.41	5.0216613e-18
2.80002728139689e-09	-0.045583755	-0.17266473	-0.9164671	0	0	0.41	5.3344183e-18
2.8100492944878632e-09	-0.046070352	-0.17505749	-0.91569024	0	0	0.41	4.606883e-18
2.8200337647633274e-09	-0.042859383	-0.17368022	-0.9161684	0	0	0.41	5.0244605e-18
2.8300325489183182e-09	-0.006664976	-0.17483555	-0.9167601	0	0	0.41	4.3638856e-18
2.8400182773833362e-09	0.008624361	-0.15974396	-0.9249018	0	0	0.41	5.137327e-18
2.85005245995325e-09	0.019670933	-0.16195217	-0.92376596	0	0	0.41	5.8554457e-18
2.8600531884854933e-09	0.02226224	-0.17963757	-0.9275127	0	0	0.41	4.43536e-18
2.870029008825788e-09	0.023731664	-0.18702611	-0.9263219	0	0	0.41	4.6989914e-18
2.8800271394228923e-09	0.01639204	-0.197378	-0.9229791	0	0	0.41	5.736894e-18
2.890028504236663e-09	0.01995081	-0.20321006	-0.9243075	0	0	0.41	5.2230727e-18
2.9000269174937138e-09	0.025064228	-0.2061279	-0.92195094	0	0	0.41	5.1958908e-18
2.910014169065965e-09	0.04754794	-0.21389876	-0.91854733	0	0	0.41	4.75158e-18
2.9200516242767056e-09	0.037113965	-0.2309809	-0.9143414	0	0	0.41	4.6442246e-18
2.930033189066904e-09	0.050269432	-0.21279858	-0.9197185	0	0	0.41	4.923964e-18
2.9400371893891964e-09	0.060086075	-0.22551133	-0.9099052	0	0	0.41	5.1050457e-18
2.9500101342795093e-09	0.077687345	-0.23126695	-0.9107836	0	0	0.41	5.0554235e-18
2.9600079473334346e-09	0.07596754	-0.22999083	-0.91059506	0	0	0.41	4.835573e-18
2.9700233010980536e-09	0.0977699	-0.23820451	-0.9039546	0	0	0.41	4.934026e-18
2.980004861538505e-09	0.09897342	-0.23760848	-0.9084841	0	0	0.41	4.5908574e-18
2.9900641835623384e-09	0.10205359	-0.22619373	-0.90571046	0	0	0.41	4.300966e-18
3.0000155315975102e-09	0.14394471	-0.2074619	-0.9017621	0	0	0.41	4.5293743e-18
3.010029697813644e-09	0.15793516	-0.19966574	-0.90097123	0	0	0.41	5.1486554e-18
3.02006217811249e-09	0.17090026	-0.18507585	-0.896859	0	0	0.41	5.046287e-18
3.030056673156747e-09	0.19527903	-0.16522889	-0.8948093	0	0	0.41	4.936819e-18
3.0400279657422927e-09	0.22019023	-0.16950473	-0.8941763	0	0	0.41	4.6213026e-18
3.050048842948605e-09	0.23844455	-0.15841325	-0.89506584	0	0	0.41	4.5620566e-18
3.0600397366720417e-09	0.24891391	-0.16858034	-0.88989395	0	0	0.41	5.1515696e-18
3.070031927397904e-09	0.25851586	-0.18134105	-0.8770947	0	0	0.41	4.9901656e-18
3.080010937151735e-09	0.26805264	-0.15927376	-0.8792036	0	0	0.41	5.050242e-18
3.090016833691211e-09	0.28847122	-0.1511325	-0.8732167	0	0	0.41	4.6777117e-18
3.100052726030428e-09	0.30427977	-0.1254615	-0.87166804	0	0	0.41	4.884892e-18
3.1100067158259932e-09	0.31091708	-0.11508679	-0.8723496	0	0	0.41	5.1553246e-18
3.12003145834285e-09	0.32299212	-0.0781493	-0.87043273	0	0	0.41	4.5213804e-18
3.1300133318203385e-09	0.3494909	-0.039867025	-0.863743	0	0	0.41	4.8558443e-18
3.1400575540228937e-09	0.36530736	-0.008542573	-0.8632039	0	0	0.41	5.3298357e-18
3.1500202606507903e-09	0.36970857	0.011322273	-0.85898787	0	0	0.41	4.2198846e-18
3.160009817803759e-09	0.38380268	0.057206336	-0.85248464	0	0	0.41	4.5215343e-18
3.170047155404597e-09	0.3720515	0.090629384	-0.85549235	0	0	0.41	4.434671e-18
3.1800546353324882e-09	0.35460678	0.13101119	-0.8571397	0	0	0.41	5.1847755e-18
3.1900580726386887e-09	0.33465788	0.14290668	-0.8617467	0	0	0.41	4.5659878e-18
3.200044196302765e-09	0.32720616	0.1510153	-0.86679214	0	0	0.41	4.8904117e-18
3.210064078256414e-09	0.32171646	0.16038089	-0.86234146	0	0	0.41	4.725e-18
3.220041062038901e-09	0.2974145	0.17640203	-0.86360806	0	0	0.41	4.5018622e-18
3.230016317518538e-09	0.266457	0.18825662	-0.8634033	0	0	0.41	4.169374e-18
3.240038906644155e-09	0.24332793	0.22198986	-0.8639036	0	0	0.41	4.6394145e-18
3.25000374043139e-09	0.21517512	0.26209602	-0.86045647	0	0	0.41	5.217382e-18
3.2600472873055765e-09	0.20273492	0.29787105	-0.85361487	0	0	0.41	5.19479e-18
3.2700569677984478e-09	0.18540291	0.31545058	-0.85192466	0	0	0.41	3.661257e-18
3.280026489718188e-09	0.14478156	0.33917794	-0.84802395	0	0	0.41	4.7867697e-18
3.2900228669540595e-09	0.10949735	0.34407273	-0.8472596	0	0	0.41	4.4740615e-18
3.300008657170915e-09	0.063037336	0.3369879	-0.84559506	0	0	0.41	4.5007745e-18
3.310023827100984e-09	0.038627513	0.3445344	-0.8332546	0	0	0.41	5.4640648e-18
3.320033069154577e-09	-0.01423479	0.33958128	-0.82042354	0	0	0.41	5.0137344e-18
3.330015765418829e-09	-0.08610796	0.32183406	-0.8090298	0	0	0.41	5.128255e-18
3.3400434191478157e-09	-0.16388969	0.29227805	-0.79958016	0	0	0.41	4.5801375e-18
3.3500618910221593e-09	-0.25471628	0.2492057	-0.7828073	0	0	0.41	4.0412802e-18
3.3600095158096e-09	-0.34993672	0.17623125	-0.76956123	0	0	0.41	4.3229745e-18
3.370003391625395e-09	-0.41215432	0.09722426	-0.76443714	0	0	0.41	4.879689e-18
3.380021799022967e-09	-0.47650138	-0.0056183585	-0.75319487	0	0	0.41	4.6924016e-18
3.3900309419207876e-09	-0.4844775	-0.10360183	-0.7455376	0	0	0.41	4.8560072e-18
3.4000362010503918e-09	-0.45884246	-0.20594363	-0.74299073	0	0	0.41	4.3955447e-18
3.410023182387505e-09	-0.38942894	-0.28381646	-0.7468716	0	0	0.41	4.96986e-18
3.4200270650386263e-09	-0.2908186	-0.33496755	-0.74318403	0	0	0.41	5.2282397e-18
3.430057003544985e-09	-0.17416725	-0.37505013	-0.73393744	0	0	0.41	4.213871e-18
3.440054226655239e-09	-0.0668963	-0.34915304	-0.72549236	0	0	0.41	5.2236042e-18
3.450062119722406e-09	0.034307122	-0.25982705	-0.7221766	0	0	0.41	4.5231522e-18
3.4600018471034503e-09	0.0784106	-0.17482848	-0.7138254	0	0	0.41	3.7257745e-18
3.470063090782046e-09	0.09141521	-0.040020548	-0.7156916	0	0	0.41	4.5515555e-18
3.480065193874534e-09	0.05038267	0.0919094	-0.73224616	0	0	0.41	4.034107e-18
3.4900348690748677e-09	-0.0534834	0.16033806	-0.74449915	0	0	0.41	5.224582e-18
3.5000529416027973e-09	-0.17567028	0.17237593	-0.74228144	0	0	0.41	4.48338e-18
3.5100059543943833e-09	-0.29265842	0.13351795	-0.73082113	0	0	0.41	3.9900906e-18
3.520031092136698e-09	-0.38929757	0.052127223	-0.7217983	0	0	0.41	4.6594856e-18
3.530017598700198e-09	-0.424999	-0.051274594	-0.71318686	0	0	0.41	4.26462e-18
3.540030310787616e-09	-0.4246656	-0.19391824	-0.70680815	0	0	0.41	4.182965e-18
3.5500315198266723e-09	-0.33608112	-0.3037312	-0.7071372	0	0	0.41	5.2788173e-18
3.560041710967739e-09	-0.17011096	-0.3766315	-0.6927225	0	0	0.41	4.601019e-18
3.5700017264785936e-09	0.013473722	-0.359747	-0.68209726	0	0	0.41	5.101924e-18
3.580047538283473e-09	0.14888492	-0.26265243	-0.66894656	0	0	0.41	5.080307e-18
3.5900302232982036e-09	0.24052306	-0.118662156	-0.65820634	0	0	0.41	4.836079e-18
3.6000387120077697e-09	0.23660183	0.024121426	-0.6481976	0	0	0.41	3.7227003e-18
3.6100484494784e-09	0.15724881	0.12814274	-0.6417136	0	0	0.41	4.3110776e-18
3.620003168433369e-09	0.0377898	0.20283595	-0.6307456	0	0	0.41	4.1996183e-18
3.630060651150186e-09	-0.12676577	0.18924882	-0.6110219	0	0	0.41	3.7265744e-18
3.6400645487646237e-09	-0.26248556	0.06674791	-0.59524137	0	0	0.41	5.2651543e-18
3.6500114925074807e-09	-0.3274022	-0.13897765	-0.58267796	0	0	0.41	4.6853818e-18
3.6600620250186952e-09	-0.24900003	-0.3580694	-0.57295364	0	0	0.41	5.3630383e-18
3.6700012273913327e-09	-0.03941203	-0.44796968	-0.55742925	0	0	0.41	4.4386764e-18
3.680018095636052e-09	0.14671391	-0.37443987	-0.5531829	0	0	0.41	4.359676e-18
3.690047052511272e-09	0.24615891	-0.20267081	-0.559744	0	0	0.41	3.8633946e-18
3.7000144283008896e-09	0.2869727	-0.035816398	-0.56699187	0	0	0.41	3.958004e-18
3.7100409620589608e-09	0.25656953	0.15057464	-0.56319666	0	0	0.41	3.8733307e-18
3.7200268332551825e-09	0.077569075	0.26980603	-0.55371356	0	0	0.41	4.0304566e-18
3.730024080574768e-09	-0.14004397	0.23002084	-0.53919435	0	0	0.41	4.181829e-18
3.740024695669747e-09	-0.28106344	0.09792901	-0.5245657	0	0	0.41	4.3781818e-18