//mumax 3.10 [windows_amd64 go1.11.6(gc) CUDA-11.0]
//GPU info: NVIDIA GeForce RTX 3070 Ti Laptop GPU(8191MB), CUDA Driver 13.0, cc=8.6, using cc=80 PTX
//(c) Arne Vansteenkiste, Dynamat LAB, Ghent University, Belgium
//This is free software without any warranty. See license.txt
//********************************************************************//
//  If you use mumax in any work or publication,                      //
//  we kindly ask you to cite the references in references.bib        //
//********************************************************************//
//output directory: fieldtest_mprof.out/
t_fl := 1.5e-9
SetGridsize(32, 32, 1)
SetCellsize(2.03125e-9, 2.03125e-9, t_fl)
Msat_cgs := 1495
Aex_cgs := 1.7757164766533013e-06
Ki_cgs := 2.48
Msat = Msat_cgs * 1e3
Aex = Aex_cgs * 1e-5
anisU = vector(0, 0, 1)
Ku1 = 0.1 * Ki_cgs / (t_fl * 100)
Temp = 300
alpha = 0.05
Xi = 0.1
print(Ku1)
//1.653333375e+06
setgeom(circle(65e-9))
m = Uniform(0, 0, -1)
relax()
Hmax := 3685
Bmax := Hmax / 1e4
TableAdd(B_ext)
B_ext = vector(0, 0, Bmax)
ThermSeed(0)
autosave(m, 1e-10)
tableautosave(1e-11)
run(1e-8)
//********************************************************************//
//Please cite the following references, relevant for your simulation. //
//See bibtex file in output folder for justification.                 //
//********************************************************************//
//   * Leliaert et al., AIP Adv. 7, 125010 (2017).
//   * Vansteenkiste et al., AIP Adv. 4, 107133 (2014).
