# t (s)	mx ()	my ()	mz ()	B_extx (T)	B_exty (T)	B_extz (T)
0	0	0	-1	0	0	0.3685
1.0026573152962753e-11	0.0097485455	0.00032632632	-0.97479534	0	0	0.3685
2.006462979205013e-11	0.018966135	-0.0044767573	-0.96712023	0	0	0.3685
3.0032160970329043e-11	0.030594427	-0.02922259	-0.96434486	0	0	0.3685
4.0025696404301856e-11	0.022633877	-0.031892005	-0.9631152	0	0	0.3685
5.00615376972608e-11	0.0030607637	-0.022437947	-0.96215653	0	0	0.3685
6.002731150926712e-11	-0.010911315	-0.015892815	-0.9582179	0	0	0.3685
7.006713182802665e-11	-0.0077430895	-0.026679635	-0.95760334	0	0	0.3685
8.004307080907186e-11	0.016471734	-0.016298097	-0.9550022	0	0	0.3685
9.002493402532942e-11	0.026048139	-0.025015678	-0.95499665	0	0	0.3685
1.0003683638403445e-10	0.023478786	-0.030076582	-0.9547732	0	0	0.3685
1.1005858249658431e-10	0.022068875	-0.027053993	-0.9556384	0	0	0.3685
1.2001193139254806e-10	0.014833171	-0.033330474	-0.9550654	0	0	0.3685
1.3005802065662735e-10	0.0341394	-0.034804285	-0.9573134	0	0	0.3685
1.4000485596612878e-10	0.01919932	-0.038887464	-0.9605842	0	0	0.3685
1.5005726071800222e-10	0.019538665	-0.053188246	-0.96133876	0	0	0.3685
1.6001533968240497e-10	0.011054206	-0.040508065	-0.96223974	0	0	0.3685
1.7001559430679315e-10	0.006399406	-0.05041246	-0.9597314	0	0	0.3685
1.8001984574465738e-10	-0.004728893	-0.053025566	-0.95700914	0	0	0.3685
1.9000994642985211e-10	-0.0057507735	-0.044797733	-0.95648676	0	0	0.3685
2.0005423826121423e-10	-0.007939949	-0.041727085	-0.95787865	0	0	0.3685
2.1001336204135652e-10	-0.0018868934	-0.01816884	-0.9536397	0	0	0.3685
2.2003271506545693e-10	0.0012850767	-0.025879923	-0.95424706	0	0	0.3685
2.3003627141361157e-10	-0.0066342214	-0.04609171	-0.9549368	0	0	0.3685
2.400092266422646e-10	0.0033925972	-0.055563554	-0.95709604	0	0	0.3685
2.500315340290442e-10	-0.01149225	-0.06762912	-0.9554607	0	0	0.3685
2.6002114324462015e-10	-0.02312222	-0.06104431	-0.95736575	0	0	0.3685
2.7002329521280065e-10	-0.03795497	-0.049962237	-0.9552913	0	0	0.3685
2.8000791489200797e-10	-0.040970046	-0.049284093	-0.9500674	0	0	0.3685
2.900491837672137e-10	-0.020947928	-0.04051706	-0.95123756	0	0	0.3685
3.000364498973872e-10	-0.01389165	-0.03269375	-0.9508051	0	0	0.3685
3.1006288028273904e-10	-0.002680459	-0.042209174	-0.95189345	0	0	0.3685
3.200518431255408e-10	-0.024226565	-0.05623466	-0.94921786	0	0	0.3685
3.3001083245076706e-10	-0.03403441	-0.058503494	-0.9500223	0	0	0.3685
3.4003429691219396e-10	-0.039043292	-0.059007004	-0.9509208	0	0	0.3685
3.5003240620668497e-10	-0.038226865	-0.05249284	-0.9523685	0	0	0.3685
3.600269395988929e-10	-0.04117241	-0.041529622	-0.95325917	0	0	0.3685
3.7006312327179163e-10	-0.021755219	-0.023438374	-0.9554168	0	0	0.3685
3.8000866812518654e-10	-0.022963569	-0.015262778	-0.9540103	0	0	0.3685
3.900515697513943e-10	-0.0099557405	-0.01363623	-0.95662117	0	0	0.3685
4.0002289052396436e-10	0.006692761	-0.009675418	-0.95436406	0	0	0.3685
4.100273210001493e-10	-0.0153934285	-0.022896228	-0.95471823	0	0	0.3685
4.2005512440464993e-10	-0.015093343	-0.028664608	-0.95425665	0	0	0.3685
4.300303305117614e-10	-0.029349238	-0.031774856	-0.9550641	0	0	0.3685
4.40065632019625e-10	-0.021550937	-0.034905992	-0.95331496	0	0	0.3685
4.500267073244701e-10	-0.01745629	-0.025887443	-0.9563477	0	0	0.3685
4.600132653623835e-10	0.001957693	-0.044147953	-0.9523025	0	0	0.3685
4.700123792798468e-10	-0.0023219585	-0.06848209	-0.9521098	0	0	0.3685
4.800199422205692e-10	-0.017637722	-0.0657287	-0.95024836	0	0	0.3685
4.900369254516003e-10	-0.037362985	-0.05939293	-0.9535735	0	0	0.3685
5.000209921469103e-10	-0.034635697	-0.06745942	-0.9515597	0	0	0.3685
5.100005611774967e-10	-0.054010052	-0.04827652	-0.9528111	0	0	0.3685
5.200167150689543e-10	-0.050011855	-0.049053427	-0.94803864	0	0	0.3685
5.300482802260353e-10	-0.05766137	-0.052966293	-0.9480893	0	0	0.3685
5.400110944975374e-10	-0.077366926	-0.04108353	-0.9435687	0	0	0.3685
5.500314031178271e-10	-0.07718265	-0.024416942	-0.9467309	0	0	0.3685
5.600653804136512e-10	-0.079139136	0.009265441	-0.94561195	0	0	0.3685
5.700222552493602e-10	-0.08267478	0.034848034	-0.94594103	0	0	0.3685
5.800333938022875e-10	-0.08994397	0.0413526	-0.9472684	0	0	0.3685
5.900073533523342e-10	-0.077100925	0.062486537	-0.95106596	0	0	0.3685
6.000637245205557e-10	-0.060078476	0.0651478	-0.9491541	0	0	0.3685
6.100142091251324e-10	-0.061164707	0.06435066	-0.9513837	0	0	0.3685
6.200069001182828e-10	-0.05621055	0.07307393	-0.9442593	0	0	0.3685
6.300177469275149e-10	-0.07276018	0.059153233	-0.94366515	0	0	0.3685
6.400387557967796e-10	-0.06598819	0.07859308	-0.9419236	0	0	0.3685
6.500021889674005e-10	-0.05008905	0.08003905	-0.93930084	0	0	0.3685
6.600185452031746e-10	-0.047529306	0.08004022	-0.9379324	0	0	0.3685
6.700138755541161e-10	-0.028081285	0.06912368	-0.9368842	0	0	0.3685
6.80053435294325e-10	-0.0209988	0.06781682	-0.9301639	0	0	0.3685
6.900659373336966e-10	-0.033052064	0.06545056	-0.93005824	0	0	0.3685
7.000430565503733e-10	-0.022847762	0.085050255	-0.9309633	0	0	0.3685
7.100252194972064e-10	-0.011111198	0.09141659	-0.9357847	0	0	0.3685
7.200204292036528e-10	-0.022019656	0.09655027	-0.9372129	0	0	0.3685
7.300107560442111e-10	-0.016128348	0.08628015	-0.94261014	0	0	0.3685
7.40036841166449e-10	-0.0023753585	0.06564903	-0.94518244	0	0	0.3685
7.500052046965338e-10	0.007529902	0.057166047	-0.9429937	0	0	0.3685
7.600192059405539e-10	0.00063719536	0.050298765	-0.9368357	0	0	0.3685
7.700463010051932e-10	-0.0030775915	0.06449767	-0.9302328	0	0	0.3685
7.800608388023152e-10	-0.0074698725	0.086706676	-0.9275573	0	0	0.3685
7.900299659540944e-10	-0.0088844765	0.09890267	-0.92794216	0	0	0.3685
8.000657083666393e-10	-0.0020975666	0.10957143	-0.9272264	0	0	0.3685
8.10050765106257e-10	0.029513927	0.121019036	-0.9230781	0	0	0.3685
8.200265250528544e-10	0.045537334	0.12259338	-0.92379755	0	0	0.3685
8.300414903356318e-10	0.065327145	0.12309331	-0.9286526	0	0	0.3685
8.400087908257919e-10	0.07105482	0.10523014	-0.9338064	0	0	0.3685
8.500586144959326e-10	0.049940966	0.10009358	-0.9361107	0	0	0.3685
8.600166794595438e-10	0.023899365	0.105846286	-0.93383855	0	0	0.3685
8.700542235044662e-10	0.017188413	0.1272275	-0.9300787	0	0	0.3685
8.80047453118847e-10	0.0149940625	0.11517599	-0.93063754	0	0	0.3685
8.900311199132298e-10	0.01288543	0.11237471	-0.93196386	0	0	0.3685
9.000262234517178e-10	0.02297427	0.12681119	-0.93015987	0	0	0.3685
9.100430811645831e-10	0.037373383	0.13005728	-0.9253318	0	0	0.3685
9.200153020035508e-10	0.03841224	0.12155802	-0.9207239	0	0	0.3685
9.30011570439183e-10	0.05551013	0.13058178	-0.92507964	0	0	0.3685
9.400651724839072e-10	0.05864126	0.1258524	-0.9225316	0	0	0.3685
9.500334237175807e-10	0.03654559	0.12995943	-0.92626256	0	0	0.3685
9.600043144546434e-10	0.035469886	0.12790789	-0.931245	0	0	0.3685
9.700254481192558e-10	0.03458553	0.11738888	-0.9279859	0	0	0.3685
9.800089278817005e-10	0.046692923	0.118923835	-0.9304386	0	0	0.3685
9.900112123365166e-10	0.06464695	0.10782738	-0.93665797	0	0	0.3685
1.0000277593766121e-09	0.07715043	0.0999235	-0.9327424	0	0	0.3685
1.0100405914269646e-09	0.07721711	0.084488034	-0.935886	0	0	0.3685
1.0200015346349219e-09	0.09407726	0.08141812	-0.93322456	0	0	0.3685
1.030052407954265e-09	0.107205845	0.0643937	-0.9327084	0	0	0.3685
1.0400141588763489e-09	0.11120727	0.056058094	-0.93277544	0	0	0.3685
1.0500262603129018e-09	0.108206145	0.055407755	-0.93138677	0	0	0.3685
1.0600321331383318e-09	0.10602446	0.026321346	-0.9341589	0	0	0.3685
1.0700148278043524e-09	0.072988644	0.012074467	-0.9410354	0	0	0.3685
1.0800236255028732e-09	0.07014078	0.018732771	-0.9498581	0	0	0.3685
1.090021226273297e-09	0.07928272	0.020410214	-0.94388133	0	0	0.3685
1.1000413722996735e-09	0.09264212	0.0053355778	-0.94619715	0	0	0.3685
1.11003423294756e-09	0.086117186	0.0014070243	-0.9465225	0	0	0.3685
1.1200374201061745e-09	0.08212047	0.003568076	-0.94532865	0	0	0.3685
1.1300033249197408e-09	0.07514157	-0.003548378	-0.9451806	0	0	0.3685
1.1400421150687655e-09	0.09320463	-0.012970546	-0.94712234	0	0	0.3685
1.1500194562072948e-09	0.094536714	-0.012952389	-0.9459139	0	0	0.3685
1.1600306491480693e-09	0.09119415	-0.037595138	-0.9501288	0	0	0.3685
1.170042079911552e-09	0.098441966	-0.060468175	-0.95118433	0	0	0.3685
1.1800201978646406e-09	0.10363115	-0.063798755	-0.9492772	0	0	0.3685
1.1900328500105014e-09	0.067106895	-0.08110578	-0.95044935	0	0	0.3685
1.2000321454440971e-09	0.050483827	-0.08762813	-0.9481475	0	0	0.3685
1.2100530470416685e-09	0.045851562	-0.07822707	-0.9496759	0	0	0.3685
1.2200274479878147e-09	0.06195574	-0.06915158	-0.94706464	0	0	0.3685
1.2300462654388581e-09	0.060302358	-0.08217898	-0.9424859	0	0	0.3685
1.2400262626398824e-09	0.060441624	-0.097498216	-0.93849266	0	0	0.3685
1.2500620973924767e-09	0.06952234	-0.111406796	-0.93868405	0	0	0.3685
1.260048231318782e-09	0.06370698	-0.12150473	-0.940531	0	0	0.3685
1.2700549711861685e-09	0.027927328	-0.12176158	-0.9432699	0	0	0.3685
1.2800613654397284e-09	0.013776054	-0.11074149	-0.94265914	0	0	0.3685
1.2900394799361898e-09	0.0019374087	-0.086782165	-0.940073	0	0	0.3685
1.3000247335062766e-09	-0.011332974	-0.09016426	-0.93551934	0	0	0.3685
1.3100532375004387e-09	-0.023683019	-0.0786729	-0.941141	0	0	0.3685
1.3200079856412274e-09	-0.027272027	-0.086107716	-0.9418818	0	0	0.3685
1.3300181949829816e-09	-0.02945798	-0.10500841	-0.94244415	0	0	0.3685
1.3400139215463719e-09	-0.033157565	-0.103606984	-0.94030505	0	0	0.3685
1.3500514199533983e-09	-0.034287483	-0.11508112	-0.943099	0	0	0.3685
1.360029122086828e-09	-0.05392687	-0.107780136	-0.9466694	0	0	0.3685
1.3700114034113073e-09	-0.064261004	-0.103269264	-0.94730216	0	0	0.3685
1.380008043311002e-09	-0.0829212	-0.0802698	-0.9492678	0	0	0.3685
1.390016460273939e-09	-0.074223615	-0.06846114	-0.9472738	0	0	0.3685
1.4000232272887429e-09	-0.064555384	-0.04795092	-0.95099425	0	0	0.3685
1.4100391093745356e-09	-0.06504063	-0.052701756	-0.9503644	0	0	0.3685
1.4200213093622901e-09	-0.06697307	-0.048722908	-0.9484573	0	0	0.3685
1.4300058167039244e-09	-0.06736537	-0.050585583	-0.94796634	0	0	0.3685
1.4400645448170954e-09	-0.07644579	-0.056901284	-0.94340986	0	0	0.3685
1.4500025259949944e-09	-0.09659602	-0.05542838	-0.94857174	0	0	0.3685
1.4600036292401337e-09	-0.10039798	-0.04116193	-0.9495271	0	0	0.3685
1.4700360841621807e-09	-0.09008945	-0.031107182	-0.9496819	0	0	0.3685
1.4800202540856122e-09	-0.07641059	-0.018503472	-0.9515793	0	0	0.3685
1.4900289182088014e-09	-0.07210257	0.011225319	-0.9496315	0	0	0.3685
1.5000555848902211e-09	-0.043935884	-0.014078452	-0.95244765	0	0	0.3685
1.5100559064739239e-09	-0.033900492	-0.010379782	-0.9529272	0	0	0.3685
1.5200609955524603e-09	-0.03956435	-0.009605085	-0.9501201	0	0	0.3685
1.5300212911188888e-09	-0.04709828	-0.0012159676	-0.9512727	0	0	0.3685
1.5400494094375868e-09	-0.07683573	0.014762502	-0.9505865	0	0	0.3685
1.550032525651879e-09	-0.07079832	0.05935609	-0.9515384	0	0	0.3685
1.5600480875570837e-09	-0.061617568	0.06755407	-0.95215654	0	0	0.3685
1.5700473582905843e-09	-0.042740673	0.06097815	-0.9503992	0	0	0.3685
1.5800608316736403e-09	-0.029874811	0.05846338	-0.9504311	0	0	0.3685
1.5900456637822066e-09	-0.027320059	0.059463922	-0.94920415	0	0	0.3685
1.600017211989963e-09	-0.023305625	0.055613548	-0.9500095	0	0	0.3685
1.6100346723437327e-09	-0.033943485	0.041932482	-0.95041406	0	0	0.3685
1.6200058469247027e-09	-0.04676209	0.06035287	-0.9468365	0	0	0.3685
1.6300545786986837e-09	-0.04528679	0.07801038	-0.95034426	0	0	0.3685
1.6400073912146582e-09	-0.03772617	0.09813387	-0.9479869	0	0	0.3685
1.6500155353635408e-09	-0.03033547	0.13150218	-0.94554055	0	0	0.3685
1.660040091136492e-09	-0.007201727	0.12729807	-0.94570005	0	0	0.3685
1.6700500876696885e-09	-0.01428279	0.12390208	-0.94429564	0	0	0.3685
1.6800207896972794e-09	-4.1163028e-05	0.10718961	-0.942099	0	0	0.3685
1.690054395824033e-09	-0.008688554	0.1009075	-0.9416035	0	0	0.3685
1.7000113079081298e-09	-0.01747822	0.097677276	-0.9364963	0	0	0.3685
1.710045018294545e-09	-0.0017959261	0.11047814	-0.93782157	0	0	0.3685
1.7200015754974426e-09	0.0049945265	0.120323576	-0.9406217	0	0	0.3685
1.7300115782431514e-09	0.03407502	0.12463794	-0.9418099	0	0	0.3685
1.7400322921088588e-09	0.041698027	0.15210748	-0.9371366	0	0	0.3685
1.7500283920707483e-09	0.05602694	0.1500027	-0.9400117	0	0	0.3685
1.7600456803251152e-09	0.048321236	0.1473922	-0.94725376	0	0	0.3685
1.7700146081284625e-09	0.06361406	0.13141598	-0.9430773	0	0	0.3685
1.7800084580222346e-09	0.06422632	0.10857554	-0.9438513	0	0	0.3685
1.7900099878066087e-09	0.052025292	0.08905275	-0.94256103	0	0	0.3685
1.8000544596475057e-09	0.05321755	0.08354882	-0.94187605	0	0	0.3685
1.8100029834805533e-09	0.03337348	0.07565691	-0.9473542	0	0	0.3685
1.8200194128498857e-09	0.03456612	0.07690124	-0.94789267	0	0	0.3685
1.83000115799318e-09	0.048818063	0.098862655	-0.94773	0	0	0.3685
1.840061707099102e-09	0.06819976	0.102802746	-0.94811267	0	0	0.3685
1.850013351600999e-09	0.08947422	0.081597425	-0.9481689	0	0	0.3685
1.8600027864073207e-09	0.09641909	0.05958025	-0.9490725	0	0	0.3685
1.8700000095897484e-09	0.10910109	0.051287096	-0.94923073	0	0	0.3685
1.880040421889988e-09	0.0892064	0.028549006	-0.95203966	0	0	0.3685
1.890001768631076e-09	0.083247066	0.024427399	-0.9497627	0	0	0.3685
1.9000246238749633e-09	0.073099986	0.0337294	-0.9474845	0	0	0.3685
1.9100074518838738e-09	0.07688675	0.026767319	-0.945956	0	0	0.3685
1.9200000136237424e-09	0.09056488	0.026006011	-0.94521946	0	0	0.3685
1.9300615002466383e-09	0.09946373	0.004822022	-0.94807523	0	0	0.3685
1.940000209642158e-09	0.11340947	-0.013973456	-0.9476506	0	0	0.3685
1.9500202563797785e-09	0.1292399	-0.046110477	-0.94190717	0	0	0.3685
1.9600299832376224e-09	0.11492722	-0.06368574	-0.9452212	0	0	0.3685
1.9700585253897696e-09	0.10658566	-0.078761935	-0.94726795	0	0	0.3685
1.9800019765408166e-09	0.09624877	-0.061346624	-0.94966555	0	0	0.3685
1.99000972549833e-09	0.10009665	-0.054560836	-0.95003986	0	0	0.3685
2.0000120538835388e-09	0.07627456	-0.04356355	-0.95166045	0	0	0.3685
2.0100325729041894e-09	0.075300075	-0.032440767	-0.9533024	0	0	0.3685
2.02001651232045e-09	0.07431767	-0.048393544	-0.9497724	0	0	0.3685
2.0300638087567067e-09	0.05244661	-0.07284519	-0.9544148	0	0	0.3685
2.0400056545100866e-09	0.040285032	-0.08355926	-0.9558151	0	0	0.3685
2.0500082973340497e-09	0.031609897	-0.09352644	-0.95274174	0	0	0.3685
2.060020451015978e-09	0.022074403	-0.0891786	-0.9565472	0	0	0.3685
2.0700110288614014e-09	0.0016594585	-0.0775609	-0.9571016	0	0	0.3685
2.0800135178597708e-09	-0.017329171	-0.07752062	-0.95356756	0	0	0.3685
2.09000815979227e-09	-0.025156336	-0.06888693	-0.9517857	0	0	0.3685
2.1000033919516286e-09	-0.026283229	-0.056404494	-0.9522264	0	0	0.3685
2.11006311699952e-09	-0.010547772	-0.07972101	-0.95309824	0	0	0.3685
2.120013906927976e-09	-0.04571218	-0.0988016	-0.9534078	0	0	0.3685
2.1300015893593235e-09	-0.05163225	-0.09179096	-0.9549662	0	0	0.3685
2.140016567095051e-09	-0.061181504	-0.08663805	-0.9534962	0	0	0.3685
2.1500635749890273e-09	-0.081014514	-0.07895012	-0.95416546	0	0	0.3685
2.1600384601858783e-09	-0.09899288	-0.07213576	-0.95080686	0	0	0.3685
2.1700437542402916e-09	-0.10008908	-0.058146093	-0.95069426	0	0	0.3685
2.1800078594782974e-09	-0.09775237	-0.051796637	-0.95202667	0	0	0.3685
2.1900479508362842e-09	-0.085552424	-0.041362874	-0.95255506	0	0	0.3685
2.200062397348299e-09	-0.08707317	-0.0380931	-0.9528209	0	0	0.3685
2.210030402288643e-09	-0.100967556	-0.04428887	-0.9485272	0	0	0.3685
2.220030457806969e-09	-0.10408541	-0.025463404	-0.95020384	0	0	0.3685
2.2300418076029434e-09	-0.11165025	-0.00095284276	-0.95130396	0	0	0.3685
2.2400274541852785e-09	-0.12562305	0.0038024804	-0.9491257	0	0	0.3685
2.250028182713437e-09	-0.1300966	0.016554903	-0.9498228	0	0	0.3685
2.2600055007004414e-09	-0.12573616	0.027452296	-0.9468752	0	0	0.3685
2.2700126305020184e-09	-0.11623866	0.03571557	-0.9425437	0	0	0.3685
2.280045599771806e-09	-0.1080134	0.0393957	-0.9457339	0	0	0.3685
2.2900368176406662e-09	-0.08729693	0.057864897	-0.950669	0	0	0.3685
2.300045987137756e-09	-0.08225697	0.06575589	-0.9512488	0	0	0.3685
2.3100083546236934e-09	-0.087633595	0.07714592	-0.9505749	0	0	0.3685
2.3200654784876574e-09	-0.07753747	0.07533617	-0.9538851	0	0	0.3685
2.330017473197666e-09	-0.058810588	0.08281144	-0.95140827	0	0	0.3685
2.340020670710577e-09	-0.057327878	0.099838406	-0.9487228	0	0	0.3685
2.350016913558407e-09	-0.051962864	0.09407019	-0.94711196	0	0	0.3685
2.360046870429885e-09	-0.040919468	0.10040238	-0.9515954	0	0	0.3685
2.3700185403336683e-09	-0.017553525	0.09799837	-0.9505818	0	0	0.3685
2.38003655705529e-09	-0.025607478	0.0806006	-0.94779855	0	0	0.3685
2.3900543847636547e-09	-0.031944487	0.085386254	-0.9457417	0	0	0.3685
2.400012727988923e-09	-0.033754993	0.09940505	-0.94576424	0	0	0.3685
2.410038307591779e-09	-0.029320903	0.122097835	-0.9434056	0	0	0.3685
2.4200283992490923e-09	-0.017097782	0.116973035	-0.94255316	0	0	0.3685
2.4300329872627212e-09	-0.0030678695	0.108952604	-0.9426655	0	0	0.3685
2.4400121988772512e-09	0.010177802	0.113492206	-0.94301796	0	0	0.3685
2.450036958462671e-09	0.0074090706	0.09348618	-0.94571435	0	0	0.3685
2.4600366594411002e-09	0.019576242	0.09740647	-0.94191575	0	0	0.3685
2.4700243329648955e-09	0.017492207	0.09326961	-0.9485516	0	0	0.3685
2.4800137618549027e-09	0.015713649	0.10021454	-0.9497031	0	0	0.3685
2.4900246709227067e-09	0.018048573	0.09699358	-0.9454795	0	0	0.3685
2.5000636548239044e-09	0.01651202	0.11353809	-0.9454669	0	0	0.3685
2.51000958236268e-09	0.039671913	0.12441789	-0.94112104	0	0	0.3685
2.5200367858118984e-09	0.06206013	0.12449696	-0.9421259	0	0	0.3685
2.530050309348146e-09	0.07555643	0.1181827	-0.94213897	0	0	0.3685
2.54002783156078e-09	0.06786922	0.104985446	-0.9430928	0	0	0.3685
2.5500450001352204e-09	0.06895289	0.10300641	-0.94215864	0	0	0.3685
2.5600175496717632e-09	0.073283896	0.099581964	-0.93930775	0	0	0.3685
2.5700553340747006e-09	0.07550359	0.091385454	-0.9386396	0	0	0.3685
2.5800631410157156e-09	0.056085274	0.09690041	-0.93834937	0	0	0.3685
2.5900211686271504e-09	0.06890507	0.093710594	-0.93840593	0	0	0.3685
2.6000006026600746e-09	0.09097344	0.08533087	-0.9313188	0	0	0.3685
2.6100375992317766e-09	0.10554176	0.095347665	-0.9305849	0	0	0.3685
2.6200240011506523e-09	0.11535347	0.09411194	-0.93249273	0	0	0.3685
2.630002448518233e-09	0.13712445	0.07708377	-0.9313833	0	0	0.3685
2.6400013983636862e-09	0.14892547	0.07732925	-0.9284821	0	0	0.3685
2.650057340129231e-09	0.16061138	0.05453462	-0.9305822	0	0	0.3685
2.6600386216893513e-09	0.15689524	0.056582164	-0.93393147	0	0	0.3685
2.6700121491193705e-09	0.16281019	0.050861705	-0.9344816	0	0	0.3685
2.680029400225931e-09	0.16567937	0.04517918	-0.9310606	0	0	0.3685
2.690033795900578e-09	0.1755905	0.03792744	-0.9298873	0	0	0.3685
2.700026246121354e-09	0.18187395	0.027784115	-0.926898	0	0	0.3685
2.710003010334565e-09	0.17601123	0.019344697	-0.92609787	0	0	0.3685
2.7200258543125273e-09	0.17980559	0.008302509	-0.92641866	0	0	0.3685
2.7300390509206648e-09	0.16588856	-0.014469964	-0.9250744	0	0	0.3685
2.7400033691182887e-09	0.16134734	-0.01743639	-0.92469794	0	0	0.3685
2.7500247516442384e-09	0.1479221	-0.03575311	-0.92172706	0	0	0.3685
2.7600510539484045e-09	0.13619123	-0.036747318	-0.9234569	0	0	0.3685
2.7700398013736538e-09	0.14425804	-0.055276558	-0.9183081	0	0	0.3685
2.780024374958267e-09	0.14166	-0.072773255	-0.9151004	0	0	0.3685
2.790031893707859e-09	0.12817118	-0.08447983	-0.9191213	0	0	0.3685
2.8000199086918067e-09	0.11350347	-0.06410808	-0.9274461	0	0	0.3685
2.8100006785308583e-09	0.11435411	-0.0733048	-0.92428195	0	0	0.3685
2.820021274793964e-09	0.1274611	-0.10091314	-0.91792333	0	0	0.3685
2.830054913713057e-09	0.11802403	-0.11079798	-0.9267342	0	0	0.3685
2.840050714389804e-09	0.11587599	-0.12396388	-0.92649156	0	0	0.3685
2.850013530206952e-09	0.12030282	-0.12554412	-0.92227757	0	0	0.3685
2.8600293717876183e-09	0.12077262	-0.14444064	-0.9189129	0	0	0.3685
2.8700266615305615e-09	0.12001708	-0.1585916	-0.9191319	0	0	0.3685
2.880042583479561e-09	0.12262438	-0.16078036	-0.91371936	0	0	0.3685
2.890005814058434e-09	0.1394464	-0.17144133	-0.9052089	0	0	0.3685
2.9000473693062806e-09	0.1434915	-0.18481779	-0.9040717	0	0	0.3685
2.9100064501304324e-09	0.14966874	-0.20108502	-0.9037202	0	0	0.3685
2.9200657138382123e-09	0.15995368	-0.21029204	-0.897042	0	0	0.3685
2.9300517500124226e-09	0.1520924	-0.20464814	-0.892995	0	0	0.3685
2.9400561689874267e-09	0.13467427	-0.20181586	-0.89863205	0	0	0.3685
2.950056949668151e-09	0.14871135	-0.19800659	-0.89169985	0	0	0.3685
2.9600157365826864e-09	0.1505077	-0.20204388	-0.89298385	0	0	0.3685
2.9700214120068203e-09	0.13949633	-0.19764659	-0.9016137	0	0	0.3685
2.9800412493839696e-09	0.122261696	-0.20263998	-0.9061539	0	0	0.3685
2.9900078233548584e-09	0.121254355	-0.21003026	-0.91009986	0	0	0.3685
3.0000169791982655e-09	0.120908916	-0.21723722	-0.9066913	0	0	0.3685
3.0100402905866075e-09	0.110246904	-0.21612659	-0.9116015	0	0	0.3685
3.020023387377789e-09	0.11644855	-0.22482616	-0.9060472	0	0	0.3685
3.030000495195749e-09	0.109354235	-0.2108529	-0.91044396	0	0	0.3685
3.040003152654947e-09	0.09953853	-0.20252745	-0.9100898	0	0	0.3685
3.050055286906855e-09	0.09335524	-0.20288311	-0.9126375	0	0	0.3685
3.060014830096782e-09	0.080431305	-0.19095235	-0.9090331	0	0	0.3685
3.0700384930967226e-09	0.06990819	-0.19517054	-0.90673566	0	0	0.3685
3.080007612967449e-09	0.065637365	-0.20454977	-0.90419555	0	0	0.3685
3.090004619660547e-09	0.06385233	-0.21389395	-0.90510756	0	0	0.3685
3.1000031422127065e-09	0.050754115	-0.2330078	-0.9021593	0	0	0.3685
3.110027148791213e-09	0.03136415	-0.23310341	-0.9093011	0	0	0.3685
3.1200413607949956e-09	0.03216852	-0.22958235	-0.917192	0	0	0.3685
3.1300558212092953e-09	0.008366153	-0.22355309	-0.9200573	0	0	0.3685
3.14006527322687e-09	0.0023135	-0.21558152	-0.92099583	0	0	0.3685
3.1500014951319537e-09	-0.0038409403	-0.22527456	-0.911292	0	0	0.3685
3.160008322174768e-09	0.00047665395	-0.23281142	-0.90769815	0	0	0.3685
3.1700104369381883e-09	-0.008585868	-0.24738038	-0.8978684	0	0	0.3685
3.180017040820432e-09	-0.029310174	-0.24426001	-0.894938	0	0	0.3685
3.19000050874643e-09	-0.034011085	-0.25961003	-0.89072347	0	0	0.3685
3.2000110219835113e-09	-0.04470248	-0.2669076	-0.8881329	0	0	0.3685
3.210035315623666e-09	-0.03759919	-0.27020064	-0.88460493	0	0	0.3685
3.2200344513161915e-09	-0.040660698	-0.29298487	-0.8809507	0	0	0.3685
3.2300018669426603e-09	-0.045376543	-0.28929168	-0.88660794	0	0	0.3685
3.2400641419158855e-09	-0.049885023	-0.2997948	-0.8835887	0	0	0.3685
3.2500201435000176e-09	-0.06303981	-0.31038737	-0.87860364	0	0	0.3685
3.260031557547628e-09	-0.05881364	-0.31308115	-0.87783486	0	0	0.3685
3.270049364591237e-09	-0.061304796	-0.30804822	-0.8759818	0	0	0.3685
3.2800281336455517e-09	-0.044843312	-0.3187295	-0.87079465	0	0	0.3685
3.290057468616908e-09	-0.03777338	-0.3120785	-0.8748862	0	0	0.3685
3.3000138856186905e-09	-0.02720394	-0.31679878	-0.87291324	0	0	0.3685
3.3100106032157656e-09	-0.038725633	-0.3169897	-0.8722724	0	0	0.3685
3.3200594326909616e-09	-0.03717473	-0.29715315	-0.87678117	0	0	0.3685
3.3300192895690087e-09	-0.03065954	-0.28406522	-0.8834847	0	0	0.3685
3.3400516100965127e-09	-0.035285268	-0.28580603	-0.88635886	0	0	0.3685
3.350020081113657e-09	-0.04624577	-0.2740101	-0.89338285	0	0	0.3685
3.3600134533394515e-09	-0.051837564	-0.26899752	-0.88824064	0	0	0.3685
3.370058621268435e-09	-0.053743213	-0.289779	-0.88461846	0	0	0.3685
3.380005096057504e-09	-0.06905003	-0.3013483	-0.88110906	0	0	0.3685
3.3900536153161426e-09	-0.06737394	-0.29647693	-0.8864533	0	0	0.3685
3.4000234390307396e-09	-0.058130264	-0.30760324	-0.8864043	0	0	0.3685
3.410014017475162e-09	-0.08247513	-0.31780145	-0.8796698	0	0	0.3685
3.420010416357586e-09	-0.09673695	-0.31935614	-0.87162226	0	0	0.3685
3.4300267024581762e-09	-0.08212633	-0.3322953	-0.87121415	0	0	0.3685
3.4400408761050094e-09	-0.09470507	-0.32730523	-0.8710431	0	0	0.3685
3.4500541871056284e-09	-0.07742326	-0.32444012	-0.8692986	0	0	0.3685
3.460034747297893e-09	-0.06285125	-0.32381853	-0.87053204	0	0	0.3685
3.470061079345369e-09	-0.05475039	-0.3199769	-0.8709809	0	0	0.3685
3.4800582745138084e-09	-0.049878906	-0.31286907	-0.87161714	0	0	0.3685
3.4900362564253853e-09	-0.04119011	-0.3063773	-0.8725988	0	0	0.3685
3.500002965188146e-09	-0.023491796	-0.32247534	-0.8747259	0	0	0.3685
3.5100173109291948e-09	-0.028513366	-0.34217563	-0.87170935	0	0	0.3685
3.520015418724861e-09	-0.02909683	-0.33428097	-0.8743376	0	0	0.3685
3.530022176611984e-09	-0.038423724	-0.34194884	-0.8717235	0	0	0.3685
3.5400036414902563e-09	-0.02995592	-0.32595766	-0.87230206	0	0	0.3685
3.5500611883243907e-09	-0.028891789	-0.32324818	-0.8694614	0	0	0.3685
3.5600585901181077e-09	-0.0057015163	-0.3291214	-0.8696776	0	0	0.3685
3.5700174118590002e-09	0.02139962	-0.32137832	-0.86662745	0	0	0.3685
3.580058116141505e-09	0.037400927	-0.31566247	-0.8693004	0	0	0.3685
3.5900347818174424e-09	0.055644184	-0.33771783	-0.8674143	0	0	0.3685
3.6000621390377843e-09	0.06065413	-0.3511206	-0.8704025	0	0	0.3685
3.6100315287426977e-09	0.06491854	-0.36146072	-0.8674415	0	0	0.3685
3.620012084101687e-09	0.041065156	-0.36288965	-0.8703461	0	0	0.3685
3.6300244331509687e-09	0.017786618	-0.35946083	-0.86579126	0	0	0.3685
3.6400657157221637e-09	0.01323508	-0.3469034	-0.86685014	0	0	0.3685
3.6500195690012573e-09	-0.0040777517	-0.33856416	-0.8619972	0	0	0.3685
3.660027438357141e-09	0.0029404939	-0.32321453	-0.85981	0	0	0.3685
3.670028024254292e-09	0.013446016	-0.33068195	-0.8583998	0	0	0.3685
3.6800368446063596e-09	0.031980217	-0.32905677	-0.85969365	0	0	0.3685
3.6900608513345217e-09	0.061346456	-0.34685454	-0.852976	0	0	0.3685
3.7000569665094e-09	0.07192798	-0.35554677	-0.84774905	0	0	0.3685
3.7100401554822175e-09	0.09991656	-0.34831733	-0.8437664	0	0	0.3685
3.7200498034291866e-09	0.11991649	-0.3517488	-0.8329463	0	0	0.3685
3.730042065995731e-09	0.15649393	-0.3390422	-0.82433844	0	0	0.3685
3.740047270935096e-09	0.18345827	-0.32273623	-0.81015974	0	0	0.3685
3.750020034849327e-09	0.21749496	-0.27394378	-0.810101	0	0	0.3685
3.760000099799805e-09	0.25129938	-0.19657554	-0.7918053	0	0	0.3685
3.770020070922178e-09	0.2636838	-0.09996761	-0.7790845	0	0	0.3685
3.780044483747241e-09	0.25465038	0.002129637	-0.77719754	0	0	0.3685
3.790026490917198e-09	0.23061477	0.07710629	-0.7766824	0	0	0.3685
3.800013172398609e-09	0.17544672	0.122421876	-0.7703988	0	0	0.3685
3.810014636306958e-09	0.099274546	0.17125487	-0.7725128	0	0	0.3685
3.820039407647533e-09	-0.010862078	0.15979084	-0.7716236	0	0	0.3685
3.830018960544759e-09	-0.11177035	0.108472094	-0.75133586	0	0	0.3685
3.84006052937347e-09	-0.17369682	0.024926022	-0.7327928	0	0	0.3685
3.850032560567911e-09	-0.21454275	-0.060252104	-0.71520704	0	0	0.3685
3.86000350790317e-09	-0.19004758	-0.18342696	-0.69471794	0	0	0.3685
3.870024304014541e-09	-0.12874347	-0.28821138	-0.6825184	0	0	0.3685
3.880011135363962e-09	-0.031024063	-0.36605126	-0.660186	0	0	0.3685
3.890057883994608e-09	0.11992627	-0.38236594	-0.64296055	0	0	0.3685
3.900007568566711e-09	0.26314542	-0.3427488	-0.630629	0	0	0.3685
3.910022128422745e-09	0.36293128	-0.2608262	-0.6169512	0	0	0.3685
3.920007654901813e-09	0.42725137	-0.09463484	-0.60075295	0	0	0.3685
3.930060532664871e-09	0.40309364	0.082364075	-0.59308654	0	0	0.3685
3.940011221334174e-09	0.3149801	0.21349053	-0.5961729	0	0	0.3685
3.950050582406385e-09	0.1727768	0.27423885	-0.576183	0	0	0.3685
3.960046595714161e-09	0.083256006	0.28855732	-0.56179667	0	0	0.3685
3.9700498990091744e-09	-0.024421569	0.24669015	-0.5369836	0	0	0.3685
3.980034075367184e-09	-0.102416694	0.12184176	-0.49507213	0	0	0.3685
3.990005624334298e-09	-0.103000544	-0.019522812	-0.46125144	0	0	0.3685
4.000040047878124e-09	-0.078951806	-0.09808821	-0.44756034	0	0	0.3685
4.010022609618998e-09	-0.031468656	-0.10307272	-0.4412941	0	0	0.3685
4.020013989391258e-09	-0.004347111	-0.11976785	-0.4401025	0	0	0.3685
4.0300185084944315e-09	0.06482258	-0.09412168	-0.42980888	0	0	0.3685
4.040015936761683e-09	0.104722686	0.05822382	-0.40879372	0	0	0.3685
4.050039695883556e-09	0.041114572	0.23132813	-0.37594342	0	0	0.3685
4.060036208487327e-09	-0.10334003	0.33629206	-0.35943037	0	0	0.3685
4.070015563881766e-09	-0.23173583	0.38171098	-0.33328673	0	0	0.3685
4.0800560144797474e-09	-0.3669384	0.3717359	-0.31731433	0	0	0.3685
4.090034608516874e-09	-0.531812	0.22761051	-0.29725802	0	0	0.3685
4.1000003882176745e-09	-0.55074924	-0.042676598	-0.29446566	0	0	0.3685
4.110059310964756e-09	-0.39924073	-0.25737602	-0.2807593	0	0	0.3685
4.120025271548127e-09	-0.23383628	-0.32652605	-0.2606663	0	0	0.3685
4.130043964148895e-09	-0.04297012	-0.4231496	-0.23416111	0	0	0.3685
4.140023615031606e-09	0.21481222	-0.41611817	-0.2231626	0	0	0.3685
4.150056971602919e-09	0.37680483	-0.28854805	-0.2009257	0	0	0.3685
4.160029612683345e-09	0.43409234	-0.11093484	-0.16433111	0	0	0.3685
4.170036665224757e-09	0.33498338	0.10969748	-0.16912124	0	0	0.3685
4.180008432535974e-09	0.13591315	0.18578546	-0.17415667	0	0	0.3685
4.19006282116155e-09	-0.02380365	0.16201286	-0.14297031	0	0	0.3685
4.200040281826921e-09	-0.13449219	0.1376928	-0.10619131	0	0	0.3685
4.210022744553881e-09	-0.103544205	0.06819217	-0.09029366	0	0	0.3685
4.220035333879642e-09	-0.05517217	0.050993033	-0.08432465	0	0	0.3685
4.2300021434870854e-09	0.017818043	0.02747907	-0.07446578	0	0	0.3685
4.240059727627753e-09	0.11377187	0.005732217	-0.06374094	0	0	0.3685
4.250051233899725e-09	0.15120639	-0.017419877	-0.053226266	0	0	0.3685
4.260031956772421e-09	0.273725	-0.013380812	-0.029013047	0	0	0.3685
4.2700200733021346e-09	0.3336545	0.15824644	-0.015473108	0	0	0.3685
4.280035930897738e-09	0.19891763	0.3627937	-0.0040330933	0	0	0.3685
4.290057876802848e-09	-0.08659779	0.3981297	-0.0017905212	0	0	0.3685
4.3000229358421804e-09	-0.3334912	0.15780044	0.015157972	0	0	0.3685
4.3100638189547055e-09	-0.29580703	-0.16619028	0.04825532	0	0	0.3685
4.320049439807438e-09	-0.07896025	-0.36533985	0.06988349	0	0	0.3685
4.3300270224999505e-09	0.20749037	-0.3363935	0.088327646	0	0	0.3685
4.340048495108543e-09	0.3394211	-0.14977738	0.10009871	0	0	0.3685
4.350062723813027e-09	0.31692445	0.09304361	0.12241694	0	0	0.3685